/*--------------------------------*- C++ -*----------------------------------*\
| =========                 |                                                 |
| \\      /  F ield         | OpenFOAM: The Open Source CFD Toolbox           |
|  \\    /   O peration     | Version:  2306                                  |
|   \\  /    A nd           | Website:  www.openfoam.com                      |
|    \\/     M anipulation  |                                                 |
\*---------------------------------------------------------------------------*/
FoamFile
{
    version     2.0;
    format      ascii;
    arch        "LSB;label=32;scalar=64";
    class       volScalarField;
    location    "0.075";
    object      p;
}
// * * * * * * * * * * * * * * * * * * * * * * * * * * * * * * * * * * * * * //

dimensions      [0 2 -2 0 0 0 0];

internalField   nonuniform List<scalar> 
4400
(
393.479
392.463
391.555
390.883
390.433
390.125
389.88
389.65
389.416
389.174
388.927
388.678
388.429
388.182
387.935
387.688
387.441
387.193
386.943
386.693
386.442
386.191
385.94
385.688
385.436
385.185
384.932
384.678
384.43
384.186
383.942
383.699
383.46
383.228
383.001
382.78
382.566
382.362
382.167
381.982
381.812
381.658
381.52
381.398
381.296
381.215
381.159
381.129
381.127
381.156
381.214
381.3
381.412
381.548
381.707
381.887
382.091
382.319
382.574
382.864
383.187
383.556
383.97
384.433
384.952
385.522
386.147
386.818
387.528
388.262
388.997
389.709
390.353
390.891
391.307
391.464
391.416
391.25
391.181
391.438
392.017
391.674
391.241
390.8
390.408
390.082
389.813
389.577
389.352
389.127
388.895
388.656
388.414
388.169
387.923
387.678
387.432
387.184
386.936
386.688
386.438
386.188
385.939
385.688
385.438
385.189
384.937
384.684
384.438
384.194
383.95
383.709
383.477
383.247
383.018
382.794
382.583
382.383
382.188
382.001
381.829
381.675
381.537
381.414
381.308
381.223
381.163
381.129
381.123
381.149
381.202
381.283
381.39
381.518
381.673
381.843
382.038
382.256
382.497
382.776
383.083
383.438
383.833
384.278
384.778
385.325
385.93
386.575
387.264
387.973
388.69
389.383
390.018
390.553
390.935
391.117
391.109
391.039
391.134
391.628
391.471
391.306
391.048
390.729
390.395
390.079
389.797
389.547
389.316
389.094
388.87
388.64
388.404
388.163
387.919
387.673
387.427
387.181
386.934
386.686
386.438
386.189
385.941
385.693
385.445
385.198
384.948
384.699
384.453
384.208
383.967
383.732
383.503
383.276
383.048
382.826
382.615
382.417
382.228
382.047
381.875
381.716
381.577
381.456
381.352
381.263
381.195
381.154
381.138
381.15
381.185
381.244
381.327
381.428
381.553
381.695
381.863
382.052
382.267
382.514
382.788
383.105
383.458
383.853
384.298
384.781
385.316
385.884
386.488
387.112
387.738
388.351
388.914
389.408
389.798
390.075
390.274
390.47
390.818
391.408
391.057
390.957
390.782
390.549
390.283
390.009
389.746
389.5
389.268
389.046
388.828
388.604
388.375
388.142
387.903
387.66
387.417
387.173
386.925
386.679
386.433
386.186
385.938
385.694
385.45
385.202
384.956
384.711
384.464
384.218
383.98
383.751
383.523
383.297
383.074
382.855
382.641
382.44
382.259
382.087
381.914
381.745
381.6
381.483
381.38
381.286
381.204
381.15
381.122
381.117
381.132
381.163
381.221
381.295
381.392
381.506
381.64
381.798
381.974
382.182
382.411
382.674
382.971
383.298
383.671
384.07
384.512
384.982
385.476
385.994
386.506
387.017
387.495
387.935
388.323
388.67
389.001
389.377
389.857
390.47
390.757
390.688
390.563
390.388
390.176
389.942
389.703
389.469
389.24
389.018
388.8
388.579
388.353
388.126
387.892
387.652
387.412
387.17
386.923
386.676
386.433
386.186
385.938
385.697
385.455
385.208
384.963
384.722
384.475
384.227
383.992
383.766
383.539
383.313
383.096
382.879
382.661
382.456
382.279
382.116
381.94
381.763
381.61
381.493
381.392
381.287
381.193
381.124
381.085
381.066
381.058
381.067
381.096
381.146
381.214
381.295
381.394
381.511
381.647
381.805
381.982
382.189
382.416
382.675
382.962
383.272
383.62
383.975
384.366
384.761
385.16
385.567
385.947
386.33
386.685
387.05
387.434
387.869
388.393
389.017
390.539
390.487
390.39
390.251
390.076
389.875
389.658
389.437
389.214
388.993
388.776
388.556
388.333
388.108
387.879
387.642
387.404
387.166
386.919
386.673
386.431
386.184
385.936
385.696
385.457
385.211
384.967
384.728
384.482
384.234
383.999
383.776
383.549
383.323
383.108
382.895
382.674
382.463
382.287
382.128
381.954
381.767
381.606
381.486
381.383
381.273
381.163
381.082
381.03
380.997
380.968
380.952
380.957
380.977
381.015
381.062
381.12
381.2
381.288
381.399
381.522
381.663
381.829
382.006
382.213
382.429
382.674
382.925
383.199
383.479
383.763
384.059
384.344
384.648
384.949
385.286
385.661
386.098
386.627
387.247
390.381
390.338
390.258
390.14
389.99
389.812
389.614
389.406
389.191
388.973
388.756
388.538
388.315
388.092
387.866
387.632
387.397
387.161
386.916
386.67
386.428
386.183
385.934
385.693
385.457
385.213
384.968
384.73
384.487
384.238
384
383.779
383.555
383.327
383.112
382.901
382.681
382.463
382.283
382.128
381.955
381.764
381.588
381.465
381.36
381.244
381.124
381.023
380.961
380.909
380.861
380.822
380.797
380.794
380.799
380.811
380.835
380.87
380.915
380.974
381.041
381.12
381.214
381.316
381.434
381.558
381.701
381.842
382.003
382.163
382.33
382.512
382.692
382.902
383.124
383.402
383.723
384.131
384.632
385.239
390.269
390.233
390.161
390.057
389.922
389.76
389.577
389.38
389.172
388.957
388.742
388.524
388.302
388.08
387.856
387.624
387.39
387.156
386.913
386.667
386.425
386.181
385.932
385.691
385.456
385.212
384.967
384.729
384.49
384.238
383.998
383.778
383.556
383.326
383.107
382.9
382.679
382.457
382.27
382.115
381.947
381.747
381.563
381.43
381.325
381.202
381.067
380.951
380.872
380.809
380.74
380.679
380.629
380.597
380.574
380.552
380.538
380.532
380.529
380.539
380.546
380.562
380.583
380.605
380.637
380.665
380.705
380.735
380.781
380.817
380.864
380.923
380.983
381.086
381.205
381.393
381.636
381.977
382.435
383.008
390.198
390.164
390.098
390.002
389.876
389.724
389.55
389.36
389.158
388.946
388.732
388.515
388.293
388.071
387.848
387.618
387.385
387.152
386.911
386.664
386.422
386.179
385.929
385.687
385.452
385.21
384.964
384.726
384.488
384.235
383.992
383.773
383.55
383.32
383.096
382.891
382.672
382.441
382.252
382.091
381.927
381.722
381.526
381.389
381.272
381.148
380.997
380.867
380.777
380.695
380.612
380.528
380.45
380.397
380.339
380.285
380.235
380.182
380.138
380.092
380.043
379.993
379.945
379.885
379.831
379.763
379.695
379.615
379.538
379.448
379.362
379.288
379.213
379.182
379.179
379.243
379.38
379.627
380.002
380.534
390.163
390.131
390.067
389.974
389.853
389.706
389.536
389.35
389.15
388.94
388.727
388.51
388.288
388.066
387.844
387.613
387.381
387.148
386.909
386.661
386.419
386.176
385.925
385.683
385.447
385.207
384.959
384.72
384.483
384.228
383.985
383.76
383.541
383.308
383.082
382.876
382.651
382.422
382.223
382.064
381.896
381.684
381.482
381.334
381.213
381.081
380.918
380.776
380.671
380.573
380.475
380.366
380.268
380.186
380.101
380.013
379.928
379.831
379.745
379.644
379.539
379.426
379.303
379.167
379.022
378.858
378.68
378.488
378.28
378.058
377.829
377.602
377.374
377.188
377.022
376.94
376.924
377.046
377.304
377.743
390.163
390.13
390.067
389.974
389.853
389.705
389.536
389.349
389.149
388.94
388.726
388.509
388.287
388.065
387.842
387.612
387.38
387.146
386.907
386.658
386.416
386.173
385.92
385.679
385.44
385.201
384.951
384.712
384.475
384.216
383.975
383.745
383.526
383.291
383.061
382.857
382.623
382.397
382.19
382.026
381.858
381.632
381.431
381.272
381.145
381.006
380.829
380.678
380.559
380.441
380.333
380.195
380.082
379.974
379.857
379.747
379.617
379.487
379.353
379.203
379.039
378.868
378.668
378.455
378.221
377.958
377.671
377.36
377.018
376.652
376.267
375.875
375.462
375.092
374.733
374.449
374.254
374.182
374.29
374.588
390.197
390.163
390.098
390.001
389.875
389.723
389.549
389.359
389.156
388.944
388.729
388.513
388.289
388.068
387.844
387.613
387.38
387.144
386.905
386.654
386.414
386.167
385.916
385.674
385.433
385.195
384.939
384.705
384.46
384.203
383.961
383.727
383.51
383.264
383.039
382.826
382.59
382.363
382.149
381.985
381.804
381.575
381.375
381.201
381.074
380.916
380.731
380.575
380.434
380.313
380.179
380.029
379.894
379.763
379.617
379.482
379.311
379.15
378.969
378.77
378.554
378.318
378.049
377.761
377.437
377.074
376.682
376.241
375.763
375.243
374.691
374.097
373.497
372.885
372.305
371.764
371.323
371.013
370.881
370.992
390.268
390.231
390.16
390.055
389.921
389.758
389.574
389.377
389.169
388.954
388.737
388.521
388.296
388.075
387.848
387.616
387.381
387.144
386.904
386.65
386.413
386.16
385.913
385.668
385.426
385.187
384.925
384.696
384.44
384.188
383.944
383.705
383.489
383.232
383.016
382.788
382.551
382.324
382.102
381.941
381.74
381.512
381.311
381.125
380.992
380.821
380.624
380.469
380.304
380.181
380.022
379.859
379.713
379.547
379.391
379.218
379.018
378.824
378.602
378.349
378.093
377.787
377.456
377.093
376.681
376.218
375.724
375.145
374.535
373.843
373.111
372.304
371.469
370.597
369.719
368.881
368.103
367.477
367.016
366.849
390.378
390.336
390.256
390.137
389.988
389.808
389.611
389.402
389.187
388.968
388.75
388.533
388.306
388.087
387.855
387.624
387.383
387.146
386.902
386.647
386.412
386.151
385.912
385.657
385.421
385.174
384.912
384.685
384.414
384.176
383.916
383.686
383.459
383.197
382.989
382.74
382.511
382.275
382.052
381.89
381.661
381.45
381.23
381.05
380.902
380.71
380.528
380.346
380.183
380.04
379.865
379.695
379.532
379.341
379.173
378.962
378.741
378.515
378.247
377.958
377.652
377.282
376.901
376.454
375.962
375.412
374.801
374.1
373.342
372.489
371.541
370.525
369.399
368.242
367
365.778
364.581
363.512
362.618
362.014
390.536
390.485
390.388
390.248
390.074
389.87
389.655
389.432
389.21
388.987
388.769
388.55
388.322
388.101
387.863
387.633
387.384
387.151
386.898
386.647
386.41
386.144
385.912
385.645
385.418
385.155
384.902
384.669
384.389
384.161
383.884
383.667
383.419
383.165
382.953
382.688
382.468
382.217
382.003
381.823
381.583
381.375
381.148
380.964
380.806
380.588
380.424
380.219
380.06
379.899
379.706
379.543
379.346
379.151
378.964
378.722
378.484
378.226
377.915
377.597
377.238
376.815
376.379
375.866
375.283
374.67
373.923
373.127
372.212
371.19
370.037
368.775
367.352
365.829
364.186
362.463
360.741
359.061
357.548
356.354
390.753
390.685
390.561
390.385
390.173
389.937
389.7
389.462
389.236
389.009
388.794
388.569
388.342
388.117
387.873
387.643
387.384
387.158
386.891
386.653
386.402
386.142
385.909
385.631
385.417
385.129
384.9
384.64
384.372
384.14
383.85
383.649
383.369
383.138
382.902
382.635
382.422
382.15
381.956
381.739
381.508
381.295
381.056
380.885
380.686
380.494
380.303
380.093
379.937
379.751
379.557
379.392
379.171
378.975
378.766
378.499
378.253
377.96
377.611
377.279
376.846
376.408
375.899
375.321
374.685
373.977
373.138
372.224
371.19
369.977
368.641
367.109
365.383
363.443
361.305
358.992
356.567
354.077
351.682
349.589
391.051
390.954
390.779
390.545
390.279
390.003
389.742
389.492
389.265
389.035
388.822
388.591
388.364
388.129
387.883
387.648
387.386
387.16
386.884
386.657
386.39
386.144
385.897
385.623
385.406
385.107
384.891
384.604
384.358
384.107
383.823
383.615
383.322
383.103
382.842
382.584
382.361
382.089
381.889
381.652
381.422
381.205
380.962
380.791
380.556
380.388
380.173
379.962
379.808
379.594
379.419
379.233
379.009
378.813
378.577
378.306
378.034
377.722
377.345
376.983
376.504
376.037
375.473
374.833
374.171
373.348
372.452
371.43
370.261
368.916
367.382
365.608
363.557
361.209
358.464
355.445
352.086
348.469
344.865
341.414
391.465
391.303
391.044
390.726
390.39
390.074
389.793
389.538
389.312
389.081
388.866
388.622
388.397
388.143
387.904
387.655
387.398
387.166
386.887
386.669
386.38
386.156
385.882
385.628
385.389
385.097
384.881
384.571
384.35
384.064
383.81
383.567
383.286
383.06
382.781
382.538
382.287
382.038
381.808
381.562
381.342
381.095
380.887
380.674
380.452
380.274
380.044
379.862
379.682
379.466
379.288
379.098
378.878
378.66
378.437
378.135
377.865
377.518
377.141
376.69
376.256
375.697
375.112
374.45
373.706
372.835
371.876
370.754
369.488
367.992
366.336
364.317
362.008
359.245
355.949
352.074
347.479
342.198
336.704
331.348
392.01
391.672
391.237
390.796
390.403
390.076
389.808
389.568
389.348
389.113
388.891
388.637
388.407
388.148
387.907
387.658
387.4
387.168
386.888
386.668
386.378
386.149
385.876
385.617
385.375
385.082
384.861
384.55
384.323
384.039
383.78
383.529
383.246
383.01
382.73
382.481
382.225
381.975
381.73
381.478
381.252
380.993
380.799
380.547
380.349
380.136
379.926
379.725
379.521
379.369
379.128
379.008
378.759
378.529
378.356
377.981
377.742
377.409
376.938
376.547
376.079
375.435
374.872
374.179
373.274
372.527
371.34
370.313
368.862
367.341
365.489
363.393
360.721
357.823
353.744
349.543
342.953
335.904
326.086
316.922
393.473
392.46
391.551
390.879
390.427
390.12
389.874
389.642
389.409
389.163
388.919
388.663
388.417
388.164
387.915
387.669
387.411
387.17
386.903
386.661
386.394
386.14
385.884
385.613
385.366
385.085
384.836
384.556
384.295
384.037
383.758
383.508
383.229
382.974
382.715
382.444
382.202
381.939
381.691
381.453
381.196
380.987
380.739
380.532
380.309
380.082
379.922
379.653
379.54
379.286
379.111
378.975
378.686
378.538
378.278
377.931
377.726
377.299
376.884
376.543
375.942
375.375
374.844
373.906
373.312
372.256
371.249
370.082
368.709
367.031
365.31
362.831
360.495
356.859
353.271
347.823
341.345
331.55
318.43
298.077
392.057
392.876
393.715
394.341
394.759
395.03
395.307
395.721
396.409
397.47
398.896
400.59
402.439
404.383
406.352
408.168
409.561
410.528
411.661
412.167
392.529
393.558
394.417
394.828
394.894
394.868
394.961
395.286
395.934
397.014
398.467
400.199
402.092
404.102
406.195
408.191
409.623
410.383
411.42
411.918
392.187
392.976
393.602
394.068
394.398
394.664
394.899
395.212
395.715
396.622
397.995
399.733
401.684
403.862
406.21
408.263
409.677
410.05
410.617
411.525
391.199
391.933
392.647
393.283
393.836
394.316
394.725
395.234
395.926
396.977
398.388
400.101
402.019
404.228
406.622
408.548
410.229
411.199
412.052
412.467
389.73
390.516
391.324
392.136
392.929
393.683
394.488
395.391
396.479
397.873
399.526
401.539
403.809
406.247
408.43
409.69
410.387
410.41
410.819
411.641
387.975
388.803
389.706
390.68
391.704
392.794
393.98
395.336
396.867
398.622
400.6
402.718
404.695
406.515
408.376
410.265
411.498
412.883
415.14
416.49
385.987
386.839
387.847
388.963
390.198
391.61
393.134
394.867
396.803
398.937
401.264
403.792
406.788
409.912
412.597
413.366
411.867
410.876
411.764
414.155
383.756
384.649
385.722
386.979
388.419
390.05
391.899
393.962
396.193
398.704
401.362
403.941
406.128
407.858
409.531
410.383
411.661
414.971
418.139
419.858
381.249
382.161
383.305
384.655
386.271
388.114
390.2
392.544
395.077
397.778
400.698
403.976
407.44
410.635
412.27
411.676
412.382
415.072
416.749
417.657
378.418
379.305
380.493
381.932
383.68
385.713
388.014
390.598
393.443
396.385
399.133
401.801
404.339
406.724
408.768
410.847
413.821
417.221
419.894
421.611
375.162
376.01
377.188
378.711
380.564
382.781
385.324
388.083
391.087
394.501
398.144
401.666
404.339
405.735
407.555
410.692
413.913
416.333
417.925
418.781
371.395
372.165
373.295
374.86
376.858
379.218
382.028
385.141
388.118
390.992
393.872
397.052
400.399
403.927
407.786
411.066
413.498
415.22
416.565
417.308
367.01
367.602
368.7
370.257
372.388
375.013
377.969
381.455
385.398
389.361
392.475
394.54
397.067
400.773
404.753
408.133
410.811
412.792
414.155
414.78
361.859
362.162
363.121
364.771
367.069
370.026
373.229
376.376
379.496
383.071
387.112
391.305
395.352
398.951
402.12
404.997
407.533
409.637
411.01
411.593
355.666
355.625
356.355
357.99
360.582
364.069
368.312
372.787
376.49
378.966
381.77
385.921
390.577
394.705
398.102
401.011
403.587
405.742
407.137
407.705
348.094
347.517
348.137
349.965
352.813
356.248
360.07
364.24
368.962
374.031
378.891
383.007
386.65
390.217
393.494
396.395
398.957
401.09
402.471
403.089
338.558
336.89
337.227
339.987
344.692
349.927
354.458
357.666
361.032
366.031
371.804
376.76
380.88
384.589
387.943
390.92
393.503
395.689
397.151
397.848
326.598
323.486
323.33
326.333
331.509
337.662
344.426
350.817
356.528
361.465
366.069
370.47
374.519
378.262
381.68
384.696
387.286
389.498
391.037
391.857
307.952
304.493
307.859
314.947
321.523
326.191
331.416
338.906
346.873
353.478
358.657
363.289
367.589
371.5
374.991
378.023
380.575
382.744
384.279
385.175
274.662
271.049
281.16
295.041
307.465
317.349
324.607
330.692
337.274
343.997
349.816
354.926
359.567
363.756
367.492
370.714
373.337
375.465
376.96
377.894
236.501
246.739
257.358
269.823
284.242
299.502
312.069
321.078
328.23
334.759
340.647
345.92
350.783
355.174
359.073
362.485
365.273
367.481
369.014
369.991
251.862
246.535
250.476
257.405
270.183
283.252
296.274
308.014
317.187
324.444
330.76
336.457
341.615
346.169
350.143
353.625
356.518
358.826
360.445
361.501
247.654
246.722
248.431
255.423
267.892
273.633
281.356
293.787
304.741
312.979
319.74
325.845
331.507
336.499
340.708
344.292
347.228
349.569
351.248
352.354
248.349
244.644
249.182
261.649
267.283
269.003
269.699
279.823
291.388
300.548
307.791
314.322
320.476
326.003
330.634
334.474
337.545
339.93
341.594
342.688
243.785
242.845
250.601
262.384
265.068
263.914
262.562
267.652
277.192
286.597
294.814
302.119
308.856
314.913
319.991
324.145
327.404
329.877
331.583
332.66
240.465
241.806
248.726
254.069
260.712
257.207
258.812
256.671
262.496
271.57
280.676
289.056
296.637
303.298
308.836
313.339
316.875
319.509
321.285
322.336
238.497
237.616
241.418
246.222
250.765
246.866
245.759
244.351
246.976
255.342
265.51
275.268
283.9
291.273
297.31
302.199
306.058
308.918
310.841
311.883
239.803
236.238
232.311
233.51
231.381
229.22
228.46
229.488
230.439
238.093
249.443
260.762
270.671
278.916
285.577
290.925
295.168
298.275
300.358
301.384
244.393
231.947
220.116
215.109
207.431
206.381
207.596
209.783
212.174
220.1
232.895
245.89
257.185
266.464
273.905
279.824
284.465
287.823
290.055
291.081
230.927
216.675
203.382
192.739
183.68
182.599
183.805
186.959
191.785
201.263
216.049
230.946
243.748
254.106
262.406
268.988
274.122
277.787
280.19
281.255
208.822
196.197
182.455
168.303
159.973
158.125
159.246
164.122
170.753
182.104
199.204
216.263
230.665
242.147
251.309
258.58
264.245
268.309
270.957
272.117
184.045
172.984
159.406
144.652
137.516
134.7
135.862
143
151.063
164
183.089
202.248
218.292
230.945
240.982
248.909
255.084
259.553
262.464
263.803
159.83
150.531
137.492
123.991
117.744
114.001
115.937
125.157
134.418
148.37
168.932
189.675
207.077
220.824
231.722
240.279
246.907
251.803
254.972
256.481
138.989
130.692
118.519
106.886
100.735
96.634
99.9518
110.533
120.996
135.751
157.558
179.282
197.649
212.289
223.941
233.058
240.038
245.294
248.684
250.352
122.815
115.341
103.922
93.5362
87.1863
83.37
87.8469
99.035
110.573
126
149.06
171.394
190.376
205.602
217.774
227.331
234.611
240.21
243.779
245.606
112.017
105.158
94.3133
84.3214
77.3978
74.2374
79.4772
91.1977
103.74
119.815
143.645
166.2
185.483
200.99
213.497
223.33
230.849
236.689
240.485
242.423
107.291
100.741
90.2993
80.4006
72.7196
69.8759
75.4572
87.4279
101.175
117.796
141.604
163.93
183.093
198.652
211.202
221.184
228.907
234.844
238.769
240.829
109.135
102.484
92.353
82.5996
74.3872
71.8071
76.9579
88.7834
102.908
119.995
143.001
164.659
183.358
198.66
211.057
220.997
228.768
234.737
238.73
240.905
116.701
110.378
100.707
91.0544
83.025
80.7159
85.4305
96.2008
109.482
126.255
148.139
168.573
186.322
201.022
213.065
222.78
230.409
236.378
240.48
242.642
129.34
123.505
114.592
105.337
97.813
95.3304
99.4945
109.115
120.849
136.541
156.893
175.538
191.903
205.633
217.003
226.224
233.58
239.428
243.623
245.917
146.211
140.874
132.783
124.379
117.254
114.411
117.521
125.599
135.559
149.848
168.457
185.083
199.773
212.127
222.468
231.021
238.059
243.839
248.165
250.523
166.447
161.366
153.774
146.046
139.455
136.439
138.341
144.432
152.504
165.254
181.941
196.426
209.149
219.866
229.065
236.863
243.483
249.193
253.762
256.16
188.867
184.058
176.615
169.22
163.062
159.794
160.564
164.629
171.026
182.345
196.619
208.73
219.316
228.362
236.303
243.241
249.477
255.14
259.844
262.55
212.157
207.549
200.098
192.918
186.923
183.211
182.827
185.146
190.244
200.228
211.685
221.209
229.707
237.088
243.703
249.824
255.768
261.455
266.456
269.307
235.912
231.2
223.387
215.921
209.702
205.644
204.303
205.298
209.276
217.774
226.387
233.441
239.973
245.711
251.142
256.533
261.888
267.386
272.914
276.051
259.335
254.406
246.178
237.99
231.366
226.913
224.805
224.843
227.712
234.368
240.352
245.163
249.806
253.983
258.236
262.63
267.203
272.569
278.548
282.215
281.6
276.646
268.098
259.191
252.115
247.109
244.311
243.557
245.347
249.859
253.42
256.127
259.089
261.908
264.826
267.932
271.695
276.877
283.136
287.196
302.311
297.576
289.02
279.887
272.144
266.478
263.068
261.52
262.048
264.28
265.608
266.449
267.82
269.275
270.91
272.545
274.958
279.167
285.313
289.448
320.473
316.181
308.276
299.346
291.302
285.087
281
278.501
277.45
277.255
276.508
275.9
275.712
275.573
275.895
276.258
276.915
278.669
282.623
286.984
334.98
331.378
324.581
316.368
308.627
302.006
297.119
293.479
290.667
288.293
285.798
284.129
282.662
280.963
279.922
279.034
277.839
276.577
276.51
280.627
345.589
342.607
336.874
329.787
322.66
315.891
310.191
305.421
301.101
297.229
293.583
290.934
288.491
285.78
283.354
281.055
278.439
275.142
271.671
274.055
352.031
349.702
345.025
338.972
332.592
325.976
319.692
314.198
308.994
304.245
300.053
296.612
293.344
289.94
286.668
283.138
279.281
274.876
270.139
270.907
355.09
353.218
349.373
344.214
338.566
332.406
326.044
320.261
314.885
309.811
305.418
301.507
297.622
293.714
289.787
285.559
280.939
276.097
271.702
270.985
355.678
354.147
350.916
346.442
341.444
335.965
329.973
324.272
319.155
314.187
309.675
305.592
301.479
297.218
292.854
288.361
283.609
278.862
275.126
274.221
354.56
353.29
350.535
346.682
342.293
337.499
332.185
326.876
322.11
317.512
313.099
308.976
304.856
300.674
296.079
291.493
286.867
282.544
279.7
278.702
352.534
351.458
349.109
345.806
341.983
337.863
333.284
328.512
324.141
319.99
315.778
311.789
307.828
303.786
299.387
294.854
290.397
286.676
284.49
283.868
350.13
349.225
347.2
344.385
341.112
337.581
333.697
329.52
325.52
321.746
317.864
314.072
310.345
306.572
302.476
298.342
294.222
290.931
289.325
288.998
347.687
346.918
345.175
342.778
339.992
336.992
333.709
330.081
326.445
323.069
319.503
315.954
312.531
309.03
305.392
301.683
298.048
295.32
294.09
294.027
345.42
344.777
343.26
341.201
338.832
336.264
333.473
330.358
327.097
324.01
320.903
317.607
314.437
311.303
308.077
304.879
301.677
299.514
298.609
298.589
343.403
342.859
341.528
339.743
337.703
335.507
333.119
330.413
327.489
324.703
321.962
319.015
316.13
313.278
310.539
307.695
305.238
303.508
302.781
302.86
341.674
341.228
340.033
338.458
336.696
334.786
332.705
330.351
327.77
325.16
322.813
320.21
317.571
315.093
312.714
310.357
308.4
307.001
306.511
306.76
340.242
339.859
338.754
337.358
335.799
334.105
332.3
330.21
327.918
325.564
323.427
321.214
318.81
316.621
314.613
312.688
311.167
310.133
309.748
309.768
339.117
338.724
337.725
336.468
335.041
333.518
331.911
330.061
328.022
325.851
323.903
322.04
319.85
318.02
316.334
314.773
313.586
312.813
312.551
312.754
338.265
337.862
336.93
335.752
334.391
333.007
331.57
329.886
328.022
326.144
324.285
322.64
320.833
319.213
317.774
316.554
315.585
315.009
314.864
315.014
337.638
337.23
336.32
335.164
333.876
332.61
331.223
329.744
328.017
326.309
324.617
323.148
321.511
320.181
318.961
317.943
317.231
316.898
316.83
316.838
337.237
336.797
335.878
334.718
333.47
332.235
330.958
329.547
327.97
326.432
324.87
323.529
322.14
320.885
319.833
319.03
318.409
318.094
318.033
318.199
337.006
336.531
335.573
334.373
333.139
331.939
330.673
329.393
327.939
326.448
325.077
323.84
322.486
321.417
320.434
319.721
319.248
319.06
319.092
319.182
336.917
336.396
335.36
334.139
332.883
331.672
330.485
329.229
327.863
326.508
325.126
323.979
322.853
321.72
320.9
320.223
319.764
319.577
319.583
319.637
336.871
336.301
335.159
333.923
332.677
331.471
330.242
329.066
327.776
326.417
325.157
324.045
322.886
321.906
321.05
320.438
320.007
319.819
319.862
320.035
336.773
336.131
334.921
333.732
332.49
331.261
330.064
328.874
327.628
326.392
325.075
323.972
322.956
321.908
321.169
320.507
320.092
319.921
319.899
319.846
336.532
335.817
334.632
333.503
332.313
331.069
329.829
328.674
327.451
326.151
324.96
323.822
322.741
321.792
320.963
320.35
319.899
319.663
319.631
319.843
336.165
335.387
334.32
333.305
332.114
330.865
329.646
328.419
327.2
325.992
324.696
323.554
322.532
321.508
320.748
320.064
319.625
319.349
319.323
319.181
335.75
334.991
334.078
333.111
331.948
330.67
329.405
328.198
326.945
325.621
324.425
323.207
322.117
321.14
320.257
319.561
319.042
318.818
318.662
318.726
335.423
334.74
333.953
333.003
331.78
330.51
329.25
327.907
326.63
325.362
323.997
322.767
321.633
320.51
319.657
318.922
318.372
317.887
317.725
317.511
335.276
334.718
333.981
332.952
331.712
330.379
329.021
327.696
326.319
324.896
323.587
322.217
320.998
319.909
318.859
317.984
317.317
316.948
316.629
316.783
335.381
334.914
334.141
333.013
331.663
330.303
328.909
327.396
325.975
324.552
323.013
321.626
320.279
318.942
317.874
316.941
316.177
315.605
315.459
314.652
335.688
335.302
334.412
333.137
331.731
330.263
328.731
327.221
325.635
324.037
322.51
320.88
319.41
318.074
316.747
315.635
314.754
314.02
313.268
313.697
336.114
335.761
334.72
333.319
331.799
330.276
328.664
326.939
325.295
323.605
321.783
320.127
318.439
316.761
315.355
314.036
312.912
312.143
311.9
310.846
336.479
336.151
334.995
333.517
331.947
330.29
328.566
326.814
324.931
323.082
321.226
319.21
317.339
315.589
313.802
312.293
311.026
309.909
308.575
309.22
336.668
336.333
335.176
333.68
332.068
330.386
328.543
326.583
324.659
322.589
320.392
318.332
316.134
313.928
311.978
310.079
308.429
307.191
306.516
305.334
336.551
336.233
335.221
333.853
332.257
330.44
328.553
326.54
324.296
322.11
319.787
317.227
314.787
312.381
309.872
307.654
305.731
304.058
301.902
302.821
336.16
335.893
335.218
334.014
332.45
330.644
328.599
326.4
324.17
321.623
318.944
316.32
313.405
310.43
307.61
304.773
302.235
300.211
298.829
297.025
335.732
335.617
335.28
334.301
332.736
330.785
328.752
326.483
323.874
321.3
318.368
315.091
311.881
308.465
304.818
301.424
298.262
295.503
292.055
293.183
335.676
335.795
335.699
334.696
333.085
331.154
328.944
326.545
324.019
320.948
317.697
314.283
310.353
306.277
302.079
297.632
293.458
289.931
287.196
284.154
336.153
336.679
336.355
335.229
333.522
331.487
329.342
326.841
323.932
320.941
317.286
313.15
308.904
304.018
298.679
293.247
287.735
282.601
276.739
277.445
336.937
337.763
337.032
335.726
334.03
332.066
329.797
327.285
324.464
320.911
317.086
312.676
307.446
301.847
295.489
288.382
280.973
273.975
267.85
262.311
337.577
338.599
337.388
336.16
334.576
332.683
330.581
327.982
324.927
321.548
317.161
312.1
306.485
299.642
291.873
283.119
273.205
262.43
250.324
247.798
337.858
338.561
337.373
336.482
335.145
333.454
331.383
329.015
325.939
322.058
317.773
312.21
305.457
297.969
288.595
277.464
264.435
249.479
231.773
216.819
337.768
337.838
337.17
336.662
335.72
334.39
332.66
330.238
327.354
323.649
318.602
312.796
305.519
296.345
285.602
272.076
254.977
234.158
203.205
175.012
337.505
337.107
336.814
336.772
336.336
335.476
334.066
332.147
329.17
325.327
320.559
313.966
305.9
296.091
283.136
267.145
245.534
218.539
177.168
94.1045
337.515
336.67
336.741
337.013
337.129
336.88
335.922
334.146
331.733
327.824
322.327
316.123
307.191
295.869
281.808
263.481
237.046
200.028
153.963
0.336394
338.137
337.167
337.128
337.637
338.23
338.576
338.269
337.146
334.454
331.173
325.78
318.395
309.501
297.618
281.184
260.452
236.411
183.49
136.917
22.4569
339.328
338.492
338.638
338.807
339.724
340.64
340.897
340.319
338.516
334.678
329.766
322.507
312.226
298.702
287.187
254.472
241.321
182.415
128.656
64.2584
340.712
340.262
340.263
340.244
341.486
342.77
344.568
343.319
343.47
338.789
335.6
323.31
322.699
294.499
294.098
253.485
233.249
191.182
130.884
99.4747
342.12
341.816
341.653
341.749
343.517
344.273
348.993
344.664
351.011
337.119
345.229
320.759
324.588
294.212
284.71
253.941
218.365
201.931
152.587
126.545
343.253
342.876
343.346
343.368
345.966
346.108
354.438
343.107
357.636
337.015
344.924
320.06
312.176
289.678
264.956
254.639
222.558
215.862
184.087
148.74
344.157
341.974
341.856
343.826
346.693
347.516
355.534
345.562
352.552
334.958
326.61
311.898
295.048
290.043
270.307
274.081
251.971
231.352
202.467
165.116
348.708
347.032
346.306
349.187
350.813
355.896
353.171
346.147
335.871
328.609
314.746
319.361
305.09
316.363
298.749
288.929
267.683
240.025
209.184
174.271
350.789
349.455
348.46
344.894
348.946
361.956
332.185
354.572
331.503
351.97
334.988
349.914
334.559
328.891
310.722
291.15
268.363
241.605
211.686
178.838
353.596
351.896
352.117
352.584
347.447
363.914
349.281
384.455
347.994
382.024
343.183
362.171
335.696
325.036
310.244
291.48
268.889
242.818
213.788
181.773
-219.941
-139.785
-232.101
-198.191
-205.366
-157.972
-168.994
-188.892
-203.867
-220.449
-222.795
-228.015
-242.577
-264.531
-294.066
-322.919
-349.525
-371.858
-390.668
-404.972
-413.875
-416.757
-413.03
-402.584
-384.621
-358.505
-325.547
-287.31
-244.924
-201.353
-158.914
-118.577
-83.0168
-53.6603
-29.8459
-11.0999
1.38856
10.4394
15.9043
18.8266
19.9134
19.7663
18.8156
17.4079
15.7647
14.0799
12.4953
11.0786
9.84161
8.7872
7.89874
7.05737
6.27974
5.4966
4.66568
3.77856
2.85636
1.99797
1.24274
0.657798
0.280837
0.111108
0.192929
0.44685
0.830589
1.23944
1.60325
1.88074
2.06573
2.1023
2.00377
1.67911
1.23878
0.715767
0.152642
-0.28173
-0.587227
-0.59527
-0.437679
-0.177367
-125.981
-179.007
-198.179
-253.894
-254.824