/*--------------------------------*- C++ -*----------------------------------*\
| =========                 |                                                 |
| \\      /  F ield         | OpenFOAM: The Open Source CFD Toolbox           |
|  \\    /   O peration     | Version:  2306                                  |
|   \\  /    A nd           | Website:  www.openfoam.com                      |
|    \\/     M anipulation  |                                                 |
\*---------------------------------------------------------------------------*/
FoamFile
{
    version     2.0;
    format      ascii;
    arch        "LSB;label=32;scalar=64";
    class       surfaceScalarField;
    location    "0.075";
    object      phi;
}
// * * * * * * * * * * * * * * * * * * * * * * * * * * * * * * * * * * * * * //

dimensions      [0 3 -1 0 0 0 0];

oriented        oriented;

internalField   nonuniform List<scalar> 
8520
(
0.00992786
7.21395e-05
0.00978965
0.000138207
0.00962961
0.000160046
0.00946842
0.000161186
0.00930966
0.000158763
0.00914952
0.000160138
0.00898679
0.000162726
0.0088215
0.000165296
0.00865437
0.000167131
0.00848641
0.000167963
0.0083188
0.000167604
0.00815231
0.000166496
0.00798708
0.000165226
0.00782326
0.000163824
0.00766094
0.000162317
0.00750012
0.00016082
0.00734089
0.000159226
0.00718342
0.000157473
0.00702781
0.000155608
0.00687417
0.000153639
0.00672261
0.000151562
0.00657323
0.000149379
0.00642617
0.00014706
0.00628153
0.000144637
0.00613948
0.000142058
0.00600028
0.000139197
0.00586406
0.000136223
0.00573074
0.000133314
0.00560048
0.000130266
0.00547361
0.000126869
0.00535023
0.000123379
0.00523033
0.000119899
0.00511431
0.000116021
0.00500245
0.000111857
0.004895
0.000107456
0.00479202
0.000102974
0.0046936
9.84265e-05
0.00459987
9.37249e-05
0.00451116
8.871e-05
0.00442823
8.29341e-05
0.00435135
7.68791e-05
0.00428037
7.09774e-05
0.00421493
6.54423e-05
0.00415498
5.99485e-05
0.00410123
5.37465e-05
0.00405358
4.76526e-05
0.00401215
4.14261e-05
0.0039764
3.57517e-05
0.00394607
3.03309e-05
0.00392056
2.55099e-05
0.00389796
2.26025e-05
0.00387685
2.11071e-05
0.00385447
2.23868e-05
0.00382943
2.50403e-05
0.00379952
2.99092e-05
0.00376246
3.70562e-05
0.0037174
4.50642e-05
0.00366175
5.56449e-05
0.00359539
6.63601e-05
0.00351652
7.88744e-05
0.0034238
9.27197e-05
0.00331673
0.000107071
0.0031924
0.00012433
0.00305029
0.00014211
0.00288739
0.000162893
0.00270116
0.000186232
0.00248971
0.000211448
0.00224813
0.000241585
0.00197523
0.0002729
0.00166535
0.000309878
0.00131685
0.000348503
0.000925983
0.000390864
0.000490428
0.000435555
1.14195e-05
0.000479009
-0.000512515
0.000523934
-0.00106665
0.00055414
-0.00162681
0.000560151
-0.00213631
0.000509502
-0.00253352
0.000397215
0.000249869
-0.00278339
0.0100357
3.64111e-05
0.0100799
9.4079e-05
0.0101109
0.000129029
0.0101273
0.000144723
0.0101359
0.000150169
0.0101434
0.000152703
0.0101497
0.00015635
0.0101537
0.000161332
0.0101543
0.000166514
0.0101511
0.000171215
0.010144
0.000174719
0.0101335
0.000176932
0.0101202
0.000178548
0.0101043
0.000179679
0.0100863
0.000180331
0.0100662
0.000180963
0.0100439
0.000181559
0.0100195
0.000181779
0.00999332
0.000181839
0.00996504
0.000181912
0.00993498
0.000181628
0.00990336
0.000180998
0.00987001
0.000180412
0.00983498
0.000179665
0.00979871
0.000178326
0.00976111
0.000176792
0.00972206
0.000175276
0.00968204
0.000173332
0.00964132
0.000170987
0.00959957
0.000168625
0.00955659
0.000166349
0.00951306
0.000163435
0.00946919
0.000159887
0.0094249
0.000156152
0.00938032
0.000152033
0.00933569
0.000147601
0.00929131
0.000142814
0.00924682
0.000138208
0.00920258
0.000132956
0.00915902
0.000126486
0.0091163
0.0001196
0.00907448
0.000112805
0.00903306
0.000106859
0.00899282
0.000100187
0.00895382
9.27482e-05
0.00891628
8.51879e-05
0.00887984
7.78652e-05
0.00884385
7.1746e-05
0.00880865
6.55321e-05
0.00877353
6.06277e-05
0.00873859
5.75483e-05
0.00870318
5.65086e-05
0.00866645
5.91171e-05
0.0086286
6.28899e-05
0.00858833
7.01797e-05
0.00854503
8.03569e-05
0.00849823
9.18671e-05
0.00844547
0.000108402
0.00838727
0.000124559
0.00832073
0.00014542
0.00824526
0.000168185
0.00815974
0.000192597
0.00806073
0.000223337
0.00794912
0.000253717
0.00781926
0.000292756
0.00767239
0.000333107
0.00750233
0.000381509
0.00730909
0.000434824
0.00708778
0.000494204
0.0068353
0.000562358
0.00655075
0.000633051
0.00622605
0.000715569
0.00586578
0.00079582
0.00545973
0.000885065
0.00501726
0.000966403
0.00453229
0.0010391
0.0040036
0.00108885
0.00341445
0.00109865
0.00274593
0.00106574
0.00101042
0.00198538
0.0100142
2.22189e-05
0.0100441
6.42165e-05
0.0100778
9.5273e-05
0.0101074
0.000115132
0.0101314
0.00012615
0.0101523
0.000131775
0.0101732
0.000135448
0.0101954
0.000139227
0.0102184
0.000143465
0.0102415
0.000148087
0.0102639
0.000152325
0.0102853
0.000155546
0.0103056
0.00015821
0.010325
0.000160282
0.0103438
0.000161551
0.0103621
0.000162706
0.0103797
0.000163912
0.0103969
0.000164641
0.0104134
0.00016527
0.0104292
0.000166138
0.0104442
0.000166593
0.0104586
0.000166651
0.0104721
0.000166928
0.0104847
0.000167068
0.0104965
0.000166485
0.0105075
0.000165813
0.0105174
0.000165329
0.0105266
0.000164173
0.010535
0.000162548
0.0105424
0.000161251
0.0105487
0.000160067
0.0105541
0.000158042
0.0105587
0.000155274
0.0105621
0.000152757
0.0105643
0.00014983
0.0105657
0.000146165
0.0105663
0.000142211
0.0105659
0.000138653
0.0105639
0.000134989
0.0105607
0.000129631
0.0105565
0.000123774
0.0105513
0.00011806
0.0105447
0.000113449
0.0105366
0.000108273
0.0105273
0.000102077
0.0105164
9.6105e-05
0.0105041
9.01146e-05
0.0104894
8.64278e-05
0.0104734
8.15725e-05
0.0104547
7.92873e-05
0.0104345
7.77688e-05
0.0104123
7.86776e-05
0.0103878
8.36973e-05
0.0103623
8.83521e-05
0.0103332
9.92705e-05
0.0103033
0.000110291
0.0102694
0.000125722
0.0102328
0.000145052
0.0101923
0.000164991
0.0101468
0.000190999
0.0100962
0.000218783
0.010039
0.000249764
0.00997463
0.000287702
0.0099017
0.000326647
0.00981999
0.000374463
0.00972599
0.000427105
0.00962116
0.000486342
0.00950068
0.000555302
0.00936453
0.000630357
0.00921131
0.000715575
0.00903637
0.000807998
0.00884228
0.000909656
0.00862355
0.00101455
0.00838082
0.0011278
0.00811283
0.00123439
0.00781204
0.00133989
0.00747324
0.00142765
0.00707597
0.00149592
0.00660117
0.00154054
0.00156827
0.00604331
0.010007
1.52639e-05
0.0100268
4.44159e-05
0.0100519
7.01425e-05
0.010077
9.00359e-05
0.0101004
0.000102749
0.0101223
0.000109819
0.0101433
0.000114508
0.0101645
0.000118047
0.0101867
0.000121222
0.01021
0.00012475
0.0102339
0.000128456
0.0102578
0.00013163
0.0102816
0.000134423
0.0103051
0.000136774
0.0103284
0.000138258
0.0103517
0.00013943
0.010375
0.000140636
0.0103983
0.000141336
0.0104217
0.000141879
0.0104451
0.000142731
0.0104683
0.000143363
0.0104914
0.000143535
0.0105144
0.000143926
0.0105371
0.000144362
0.0105595
0.000144059
0.0105817
0.00014368
0.0106036
0.000143454
0.0106249
0.000142791
0.0106459
0.000141555
0.0106666
0.000140593
0.0106866
0.00014001
0.0107062
0.000138491
0.010725
0.000136506
0.0107431
0.000134653
0.0107602
0.000132705
0.0107765
0.000129864
0.0107921
0.000126604
0.0108066
0.000124148
0.0108198
0.000121817
0.0108314
0.000118047
0.0108418
0.000113331
0.0108508
0.000109034
0.0108585
0.000105798
0.0108638
0.000102946
0.0108675
9.83746e-05
0.0108689
9.47258e-05
0.0108684
9.06129e-05
0.0108659
8.89646e-05
0.01086
8.74657e-05
0.0108529
8.63929e-05
0.0108419
8.87699e-05
0.01083
9.05161e-05
0.0108149
9.88427e-05
0.0107981
0.000105076
0.0107793
0.000118121
0.0107582
0.000131365
0.0107358
0.00014811
0.0107097
0.000171238
0.0106832
0.000191457
0.0106506
0.00022354
0.0106177
0.000251753
0.0105781
0.000289362
0.0105356
0.000330139
0.0104876
0.000374716
0.0104339
0.000428147
0.0103744
0.000486632
0.010308
0.000552683
0.0102334
0.000629915
0.0101514
0.000712397
0.0100595
0.000807399
0.00995666
0.000910881
0.00984664
0.00101968
0.00971929
0.00114189
0.00958637
0.00126072
0.00943147
0.00138928
0.00926194
0.00150942
0.00906081
0.00162878
0.00882241
0.00173433
0.00853051
0.00183244
0.00191269
0.00818609
0.0100043
1.09242e-05
0.0100166
3.2152e-05
0.010035
5.1726e-05
0.0100563
6.87615e-05
0.0100781
8.09555e-05
0.0100989
8.89608e-05
0.0101194
9.40633e-05
0.0101399
9.75747e-05
0.010161
0.000100131
0.010183
0.000102753
0.0102057
0.000105734
0.0102288
0.000108465
0.0102524
0.0001109
0.0102759
0.0001132
0.0102994
0.000114833
0.0103228
0.000115943
0.0103464
0.00011705
0.01037
0.000117746
0.0103938
0.000118151
0.0104177
0.000118762
0.0104417
0.000119434
0.0104655
0.00011967
0.0104895
0.000119921
0.0105134
0.00012051
0.010537
0.000120427
0.0105605
0.000120137
0.010584
0.000120004
0.0106071
0.000119674
0.0106298
0.000118861
0.0106525
0.000117872
0.0106748
0.000117706
0.0106966
0.000116762
0.0107178
0.000115298
0.0107384
0.000114007
0.0107585
0.000112585
0.0107775
0.000110933
0.0107959
0.000108136
0.0108134
0.000106648
0.01083
0.00010521
0.0108451
0.000103029
0.0108587
9.9709e-05
0.0108713
9.64383e-05
0.0108821
9.49482e-05
0.0108917
9.33439e-05
0.0108987
9.14107e-05
0.0109045
8.8923e-05
0.0109076
8.75343e-05
0.0109092
8.72907e-05
0.0109078
8.89318e-05
0.0109044
8.97261e-05
0.0108989
9.43046e-05
0.0108905
9.89526e-05
0.0108817
0.00010763
0.0108686
0.000118192
0.0108565
0.000130234
0.0108401
0.000147696
0.010824
0.000164245
0.0108053
0.00018996
0.0107845
0.000212238
0.0107622
0.00024585
0.0107362
0.000277756
0.010709
0.000316516
0.0106764
0.000362799
0.0106431
0.000408006
0.0106033
0.000467882
0.0105618
0.000528142
0.0105147
0.000599828
0.0104637
0.000680861
0.0104082
0.000767949
0.010346
0.000869562
0.0102817
0.000975249
0.0102071
0.00109424
0.0101307
0.00121826
0.0100433
0.00134812
0.00994795
0.00148466
0.00983925
0.00161812
0.00971099
0.00175705
0.00955991
0.0018854
0.00937694
0.00201542
0.00213075
0.00915888
0.010003
7.89907e-06
0.0100118
2.33681e-05
0.0100256
3.79589e-05
0.0100431
5.11972e-05
0.0100625
6.15569e-05
0.0100825
6.90216e-05
0.0101025
7.40342e-05
0.0101226
7.74635e-05
0.0101429
7.98294e-05
0.010164
8.1701e-05
0.0101858
8.38604e-05
0.0102083
8.60583e-05
0.0102312
8.80001e-05
0.0102543
9.00219e-05
0.0102776
9.15989e-05
0.0103008
9.26579e-05
0.0103243
9.3611e-05
0.0103477
9.43292e-05
0.0103712
9.46583e-05
0.010395
9.49698e-05
0.0104187
9.57392e-05
0.0104424
9.59223e-05
0.0104662
9.61511e-05
0.01049
9.66961e-05
0.0105136
9.68718e-05
0.010537
9.67376e-05
0.0105605
9.64595e-05
0.0105835
9.67241e-05
0.0106063
9.60467e-05
0.0106288
9.53398e-05
0.0106512
9.5311e-05
0.0106731
9.48984e-05
0.0106942
9.41637e-05
0.0107152
9.30509e-05
0.0107353
9.2467e-05
0.0107545
9.1723e-05
0.0107731
8.95498e-05
0.0107909
8.88059e-05
0.010808
8.81688e-05
0.0108237
8.73262e-05
0.0108374
8.59438e-05
0.0108508
8.30165e-05
0.0108622
8.35807e-05
0.0108728
8.27507e-05
0.0108811
8.30827e-05
0.0108875
8.26094e-05
0.0108928
8.22181e-05
0.0108945
8.55157e-05
0.0108964
8.70424e-05
0.010894
9.21758e-05
0.0108917
9.65639e-05
0.0108861
0.000104591
0.0108795
0.000114178
0.0108715
0.000126196
0.0108609
0.000140908
0.0108508
0.000157743
0.0108365
0.00017859
0.0108241
0.000202281
0.0108067
0.000229696
0.0107904
0.000262166
0.0107705
0.0002976
0.010749
0.000337998
0.0107249
0.000386906
0.0106994
0.000433524
0.010669
0.000498344
0.0106379
0.00055924
0.0106031
0.000634593
0.0105632
0.000720746
0.0105245
0.000806677
0.0104761
0.000917941
0.0104309
0.00102042
0.0103742
0.00115093
0.0103194
0.00127312
0.0102529
0.00141457
0.010182
0.00155554
0.0100973
0.00170286
0.0100024
0.00185191
0.00988541
0.00200243
0.00975256
0.00214826
0.002291
0.00959231
0.0100024
5.54471e-06
0.0100093
1.64399e-05
0.0100204
2.684e-05
0.0100352
3.63507e-05
0.0100525
4.43387e-05
0.0100711
5.03922e-05
0.0100904
5.46839e-05
0.0101102
5.7673e-05
0.0101303
5.97675e-05
0.0101508
6.11715e-05
0.0101721
6.26049e-05
0.0101939
6.4231e-05
0.0102163
6.56554e-05
0.010239
6.72803e-05
0.010262
6.8594e-05
0.0102851
6.95701e-05
0.0103084
7.03235e-05
0.0103317
7.0975e-05
0.010355
7.13526e-05
0.0103786
7.14027e-05
0.0104021
7.22333e-05
0.0104257
7.23228e-05
0.0104493
7.25762e-05
0.0104729
7.31099e-05
0.0104964
7.33457e-05
0.0105196
7.35804e-05
0.010543
7.30614e-05
0.0105658
7.38748e-05
0.0105885
7.33835e-05
0.0106109
7.2947e-05
0.0106329
7.32633e-05
0.0106548
7.30275e-05
0.0106756
7.33178e-05
0.0106966
7.20783e-05
0.0107165
7.25692e-05
0.0107359
7.23206e-05
0.0107542
7.12412e-05
0.0107719
7.11526e-05
0.010789
7.10588e-05
0.0108045
7.179e-05
0.0108191
7.13733e-05
0.0108321
6.99752e-05
0.0108442
7.14545e-05
0.0108546
7.23608e-05
0.0108638
7.38716e-05
0.0108706
7.58341e-05
0.0108765
7.63519e-05
0.0108802
8.1841e-05
0.0108825
8.47205e-05
0.0108831
9.1553e-05
0.0108814
9.82289e-05
0.0108791
0.000106888
0.0108745
0.00011884
0.010869
0.000131643
0.0108622
0.000147768
0.0108538
0.000166146
0.0108444
0.000187931
0.0108342
0.00021248
0.0108215
0.000242429
0.0108098
0.000273883
0.0107944
0.000312955
0.0107787
0.000353713
0.0107621
0.000403478
0.0107416
0.000454108
0.0107212
0.000518735
0.0106975
0.000582948
0.0106718
0.000660261
0.0106433
0.00074924
0.0106131
0.000836827
0.0105788
0.000952242
0.0105425
0.00105678
0.0104999
0.00119353
0.0104562
0.00131677
0.0104006
0.00147021
0.0103421
0.00161404
0.0102694
0.00177561
0.0101845
0.00193676
0.0100853
0.00210164
0.0099661
0.00226746
0.00243058
0.00982653
0.010002
3.54592e-06
0.0100079
1.05325e-05
0.0100175
1.72337e-05
0.0100305
2.33454e-05
0.0100461
2.87453e-05
0.0100635
3.29544e-05
0.0100822
3.60632e-05
0.0101016
3.82333e-05
0.0101215
3.98571e-05
0.0101419
4.08243e-05
0.0101627
4.17553e-05
0.0101841
4.28006e-05
0.0102061
4.37236e-05
0.0102284
4.49131e-05
0.0102513
4.57759e-05
0.0102741
4.6699e-05
0.0102974
4.70583e-05
0.0103206
4.77873e-05
0.0103439
4.80192e-05
0.0103673
4.80401e-05
0.0103907
4.88441e-05
0.0104143
4.87168e-05
0.0104375
4.93955e-05
0.0104612
4.93872e-05
0.0104844
5.00913e-05
0.0105077
5.03199e-05
0.0105308
4.9912e-05
0.0105535
5.12252e-05
0.0105764
5.04391e-05
0.0105984
5.10328e-05
0.0106205
5.10885e-05
0.0106422
5.13658e-05
0.0106629
5.25688e-05
0.010684
5.09895e-05
0.0107036
5.30351e-05
0.0107233
5.26267e-05
0.0107417
5.2818e-05
0.0107588
5.40352e-05
0.0107765
5.33483e-05
0.0107915
5.68465e-05
0.010807
5.57845e-05
0.0108198
5.7176e-05
0.0108318
5.9455e-05
0.0108435
6.07352e-05
0.0108521
6.522e-05
0.0108609
6.70386e-05
0.0108669
7.03517e-05
0.0108718
7.69099e-05
0.010876
8.05865e-05
0.010877
9.05042e-05
0.0108784
9.68664e-05
0.0108769
0.000108399
0.010875
0.000120736
0.010872
0.000134671
0.0108672
0.000152564
0.0108626
0.000170721
0.0108557
0.000194858
0.0108494
0.000218734
0.0108411
0.000250716
0.0108332
0.000281839
0.0108233
0.000322788
0.0108137
0.000363319
0.0108022
0.000415035
0.0107899
0.000466348
0.0107758
0.000532838
0.0107619
0.00059685
0.010743
0.000679145
0.0107263
0.000766015
0.0107051
0.000858022
0.010681
0.000976311
0.0106559
0.00108184
0.010624
0.00122547
0.0105895
0.0013513
0.010544
0.00151564
0.0104949
0.00166319
0.0104283
0.00184221
0.0103538
0.00201123
0.010257
0.00219838
0.0101462
0.00237829
0.00256591
0.0100109
0.0100018
1.73408e-06
0.0100072
5.17905e-06
0.0100159
8.45525e-06
0.0100278
1.14837e-05
0.0100424
1.41843e-05
0.010059
1.63452e-05
0.010077
1.80168e-05
0.0100961
1.91076e-05
0.0101159
2.00993e-05
0.0101362
2.05213e-05
0.0101569
2.11097e-05
0.0101781
2.15889e-05
0.0101997
2.20591e-05
0.0102218
2.28291e-05
0.0102445
2.30676e-05
0.0102672
2.40163e-05
0.0102905
2.37896e-05
0.0103136
2.47083e-05
0.0103369
2.46322e-05
0.0103602
2.47614e-05
0.0103835
2.56009e-05
0.0104072
2.50036e-05
0.0104301
2.64798e-05
0.0104539
2.55429e-05
0.0104769
2.71029e-05
0.0105004
2.68835e-05
0.0105233
2.69421e-05
0.010546
2.85319e-05
0.0105691
2.73551e-05
0.0105906
2.95107e-05
0.0106131
2.85775e-05
0.0106343
3.01647e-05
0.0106558
3.11296e-05
0.0106764
3.03718e-05
0.010696
3.34248e-05
0.0107159
3.27372e-05
0.0107341
3.46371e-05
0.0107517
3.63901e-05
0.0107692
3.5867e-05
0.0107847
4.137e-05
0.0108005
3.99819e-05
0.0108132
4.44208e-05
0.010826
4.67174e-05
0.0108376
4.90716e-05
0.0108474
5.5418e-05
0.010857
5.74777e-05
0.0108636
6.37221e-05
0.0108701
7.04829e-05
0.0108744
7.62831e-05
0.0108781
8.6744e-05
0.0108795
9.55101e-05
0.0108816
0.00010628
0.01088
0.000122381
0.0108811
0.000133567
0.0108777
0.00015596
0.0108767
0.000171694
0.010873
0.000198554
0.0108702
0.000221484
0.0108659
0.000255064
0.0108627
0.000285083
0.0108576
0.0003278
0.0108533
0.000367622
0.0108486
0.00041982
0.0108422
0.000472704
0.0108376
0.000537462
0.010829
0.000605457
0.0108229
0.000685173
0.0108127
0.000776239
0.010804
0.000866719
0.0107895
0.000990811
0.0107771
0.00109422
0.0107548
0.00124777
0.0107327
0.00137348
0.010697
0.00155129
0.0106571
0.00170306
0.0106011
0.00189824
0.0105292
0.00208315
0.0104464
0.00228122
0.0103257
0.00249896
0.00268859
0.010203
0.0100017
4.42827e-09
0.0100068
8.22439e-08
0.0100152
5.1142e-08
0.0100266
1.39411e-07
0.0100406
1.18567e-07
0.0100568
1.7217e-07
0.0100746
2.55206e-07
0.0100935
1.72857e-07
0.0101132
4.46546e-07
0.0101335
1.86252e-07
0.010154
6.21643e-07
0.0101752
3.3667e-07
0.0101966
6.63068e-07
0.0102187
7.46323e-07
0.0102413
5.31953e-07
0.0102639
1.37064e-06
0.0102872
4.42369e-07
0.0103101
1.90185e-06
0.0103339
8.2351e-07
0.0103567
1.9498e-06
0.0103803
1.97641e-06
0.0104038
1.53901e-06
0.0104267
3.56901e-06
0.0104508
1.45275e-06
0.0104732
4.64932e-06
0.0104974
2.72284e-06
0.0105198
4.56524e-06
0.0105428
5.53445e-06
0.0105661
4.04483e-06
0.010587
8.52308e-06
0.0106105
5.09298e-06
0.0106308
9.91065e-06
0.0106531
8.86018e-06
0.0106734
1.00684e-05
0.0106929
1.39275e-05
0.0107138
1.17762e-05
0.010731
1.74142e-05
0.01075
1.73977e-05
0.0107665
1.93624e-05
0.0107828
2.50718e-05
0.010799
2.38128e-05
0.0108121
3.12885e-05
0.0108253
3.35635e-05
0.0108382
3.6122e-05
0.010847
4.66128e-05
0.0108598
4.47554e-05
0.0108642
5.92899e-05
0.0108743
6.03861e-05
0.010878
7.26256e-05
0.0108837
8.09932e-05
0.0108876
9.15832e-05
0.0108894
0.000104558
0.0108927
0.00011901
0.0108929
0.000133397
0.0108949
0.000153976
0.0108942
0.000172392
0.0108962
0.000196573
0.0108936
0.000224058
0.0108974
0.000251235
0.0108936
0.000288889
0.0108987
0.000322759
0.010895
0.00037129
0.0109012
0.000413555
0.010897
0.000476911
0.0109047
0.000529761
0.0109007
0.000609503
0.0109069
0.000678959
0.0109054
0.000777713
0.0109078
0.00086434
0.0109063
0.000992282
0.0109035
0.00109709
0.0108993
0.00125192
0.0108814
0.00139142
0.0108704
0.00156225
0.0108275
0.00174602
0.010798
0.00192766
0.0107217
0.00215951
0.0106542
0.00234874
0.0105354
0.00261768
0.00281784
0.0104062
0.0100017
-1.72562e-06
0.0100068
-5.00267e-06
0.0100152
-8.37446e-06
0.0100266
-1.11821e-05
0.0100407
-1.39813e-05
0.0100568
-1.59775e-05
0.0100746
-1.75278e-05
0.0100935
-1.8777e-05
0.0101132
-1.91677e-05
0.0101336
-2.0251e-05
0.0101539
-1.973e-05
0.0101754
-2.1118e-05
0.0101966
-2.05294e-05
0.0102189
-2.15581e-05
0.0102413
-2.18663e-05
0.010264
-2.13432e-05
0.0102875
-2.30238e-05
0.01031
-2.06577e-05
0.0103343
-2.3457e-05
0.0103566
-2.03038e-05
0.0103809
-2.23578e-05
0.0104037
-2.12968e-05
0.0104272
-1.99179e-05
0.0104511
-2.2418e-05
0.0104735
-1.77664e-05
0.0104983
-2.20268e-05
0.0105198
-1.69554e-05
0.0105441
-1.87575e-05
0.0105662
-1.81059e-05
0.0105883
-1.35372e-05
0.0106115
-1.80823e-05
0.0106316
-1.02187e-05
0.0106548
-1.43642e-05
0.0106743
-9.44127e-06
0.0106947
-6.47432e-06
0.0107159
-9.44522e-06
0.0107322
1.12463e-06
0.0107536
-3.94291e-06
0.0107677
5.2155e-06
0.0107871
5.6504e-06
0.0108018
9.17465e-06
0.0108162
1.6845e-05
0.0108302
1.95831e-05
0.0108419
2.44029e-05
0.0108541
3.44211e-05
0.0108641
3.47316e-05
0.0108732
5.02392e-05
0.0108808
5.27928e-05
0.0108892
6.41651e-05
0.0108925
7.77553e-05
0.0109021
8.19564e-05
0.0109007
0.000105933
0.0109108
0.000108982
0.0109083
0.000135876
0.0109168
0.000145427
0.0109151
0.000174079
0.010923
0.000188743
0.0109218
0.000225266
0.0109307
0.000242335
0.0109308
0.000288718
0.0109399
0.000313751
0.0109443
0.000366852
0.0109521
0.000405748
0.0109615
0.000467528
0.0109687
0.000522583
0.0109827
0.000595489
0.0109885
0.000673109
0.0110087
0.000757526
0.01101
0.00086301
0.0110358
0.000966497
0.0110317
0.00110118
0.0110557
0.001228
0.0110422
0.00140492
0.0110534
0.00155104
0.0110242
0.00177515
0.0110027
0.00194921
0.0109527
0.0022095
0.0108741
0.00242735
0.0107896
0.00270219
0.00297539
0.010632
0.0100018
-3.52417e-06
0.0100071
-1.03379e-05
0.010016
-1.72083e-05
0.0100278
-2.2971e-05
0.0100425
-2.86763e-05
0.0100589
-3.24531e-05
0.0100771
-3.57417e-05
0.0100962
-3.78074e-05
0.010116
-3.89731e-05
0.0101364
-4.07044e-05
0.0101568
-4.00708e-05
0.0101786
-4.29358e-05
0.0101995
-4.14319e-05
0.0102226
-4.46295e-05
0.0102444
-4.36905e-05
0.0102678
-4.47859e-05
0.0102909
-4.61285e-05
0.0103136
-4.33304e-05
0.0103384
-4.82358e-05
0.0103597
-4.15742e-05
0.0103856
-4.83348e-05
0.0104068
-4.24292e-05
0.010432
-4.51298e-05
0.0104549
-4.53895e-05
0.0104775
-4.03534e-05
0.0105035
-4.79557e-05
0.0105229
-3.64134e-05
0.0105503
-4.61609e-05
0.0105694
-3.717e-05
0.0105944
-3.85258e-05
0.010616
-3.9656e-05
0.0106368
-3.10428e-05
0.0106611
-3.864e-05
0.010679
-2.7392e-05
0.010702
-2.94748e-05
0.0107211
-2.85342e-05
0.0107395
-1.73284e-05
0.0107601
-2.45112e-05
0.0107757
-1.03562e-05
0.0107943
-1.29497e-05
0.0108111
-7.65352e-06
0.0108229
5.05352e-06
0.010842
4.64105e-07
0.0108486
1.77921e-05
0.0108681
1.49732e-05
0.0108727
3.00793e-05
0.0108875
3.54317e-05
0.010893
4.73041e-05
0.0109033
5.39297e-05
0.0109088
7.2221e-05
0.0109172
7.35638e-05
0.0109203
0.000102828
0.0109289
0.000100386
0.010932
0.000132766
0.0109379
0.000139534
0.0109456
0.000166374
0.0109473
0.000187087
0.0109602
0.000212375
0.0109607
0.00024183
0.0109775
0.000271842
0.0109787
0.000312628
0.0110008
0.00034466
0.011002
0.000404548
0.0110308
0.000438755
0.0110335
0.000519885
0.011067
0.000561996
0.0110736
0.000666495
0.0111112
0.000719928
0.0111217
0.000852537
0.0111602
0.000928026
0.0111775
0.00108388
0.0112057
0.00119981
0.0112299
0.00138071
0.0112344
0.00154653
0.011255
0.00175449
0.0112192
0.00198508
0.0112166
0.00221205
0.011129
0.002515
0.0110687
0.00276249
0.00312546
0.0109186
0.010002
-5.48772e-06
0.0100079
-1.62255e-05
0.0100176
-2.69111e-05
0.0100304
-3.58344e-05
0.0100463
-4.4538e-05
0.0100634
-4.95925e-05
0.0100824
-5.47531e-05
0.0101016
-5.69403e-05
0.0101217
-5.91442e-05
0.0101421
-6.10988e-05
0.0101627
-6.0615e-05
0.0101849
-6.52083e-05
0.0102057
-6.21743e-05
0.0102298
-6.87186e-05
0.0102508
-6.47147e-05
0.0102756
-6.95609e-05
0.0102975
-6.81017e-05
0.0103215
-6.72431e-05
0.0103454
-7.21945e-05
0.0103672
-6.33604e-05
0.0103936
-7.47604e-05
0.0104138
-6.26056e-05
0.010441
-7.22717e-05
0.0104619
-6.62995e-05
0.010487
-6.54609e-05
0.010511
-7.20367e-05
0.0105318
-5.71544e-05
0.0105595
-7.38793e-05
0.0105773
-5.498e-05
0.0106048
-6.60283e-05
0.0106244
-5.92848e-05
0.0106469
-5.34889e-05
0.0106716
-6.33412e-05
0.0106875
-4.32886e-05
0.0107154
-5.7398e-05
0.0107289
-4.20024e-05
0.0107541
-4.25245e-05
0.0107694
-3.98631e-05
0.0107894
-3.03156e-05
0.0108071
-3.0643e-05
0.0108228
-2.33849e-05
0.0108387
-1.08437e-05
0.0108544
-1.51726e-05
0.0108658
6.37717e-06
0.0108821
-1.3202e-06
0.010891
2.11134e-05
0.0109025
2.39504e-05
0.0109143
3.55286e-05
0.0109183
4.98786e-05
0.010934
5.6566e-05
0.0109329
7.46722e-05
0.0109487
8.7014e-05
0.0109478
0.000101235
0.0109624
0.000118215
0.0109618
0.000140113
0.0109789
0.000149285
0.010977
0.000188956
0.0109978
0.000191612
0.0109987
0.000240899
0.0110199
0.000250653
0.0110279
0.00030464
0.01105
0.000322524
0.0110648
0.000389827
0.01109
0.000413534
0.0111127
0.000497142
0.0111392
0.000535511
0.0111754
0.000630277
0.0112
0.000695324
0.0112515
0.000801046
0.011275
0.000904545
0.0113386
0.00102029
0.0113577
0.00118069
0.0114268
0.0013116
0.0114365
0.0015369
0.0114893
0.00170162
0.011481
0.00199343
0.0114857
0.00220735
0.0114475
0.0025532
0.0113653
0.00284471
0.00322276
0.011268
0.0100023
-7.74257e-06
0.0100092
-2.31952e-05
0.0100204
-3.8116e-05
0.0100351
-5.05206e-05
0.0100527
-6.21547e-05
0.0100708
-6.76845e-05
0.010091
-7.49051e-05
0.0101099
-7.58822e-05
0.0101309
-8.01539e-05
0.0101508
-8.09832e-05
0.0101724
-8.21795e-05
0.0101948
-8.76e-05
0.0102157
-8.31411e-05
0.0102411
-9.41243e-05
0.0102606
-8.42174e-05
0.0102882
-9.71095e-05
0.0103071
-8.70371e-05
0.0103345
-9.46412e-05
0.0103556
-9.3278e-05
0.0103795
-8.72959e-05
0.0104059
-0.00010108
0.0104244
-8.11549e-05
0.0104558
-0.000103627
0.0104712
-8.16965e-05
0.0105032
-9.74727e-05
0.0105206
-8.94548e-05
0.0105475
-8.4049e-05
0.0105716
-9.79833e-05
0.0105908
-7.41757e-05
0.0106202
-9.54662e-05
0.0106363
-7.53138e-05
0.0106644
-8.16236e-05
0.0106838
-8.27794e-05
0.010705
-6.4439e-05
0.0107299
-8.22981e-05
0.0107455
-5.76534e-05
0.0107703
-6.72624e-05
0.0107871
-5.66976e-05
0.0108059
-4.91103e-05
0.0108276
-5.23292e-05
0.010838
-3.3803e-05
0.0108628
-3.56643e-05
0.0108691
-2.14088e-05
0.010892
-1.65957e-05
0.0108988
-8.10881e-06
0.0109156
4.34308e-06
0.0109242
1.53423e-05
0.0109382
2.15638e-05
0.0109431
4.4988e-05
0.0109591
4.05445e-05
0.0109596
7.41385e-05
0.0109749
7.17388e-05
0.0109786
9.75021e-05
0.0109886
0.000108274
0.0109989
0.000129759
0.011006
0.00014215
0.0110204
0.000174653
0.0110293
0.000182672
0.0110482
0.000221986
0.0110578
0.000241082
0.0110866
0.000275829
0.0110942
0.000314879
0.0111358
0.000348245
0.011145
0.000404316
0.0111965
0.000445674
0.0112114
0.000520646
0.0112744
0.000567259
0.0112967
0.000673014
0.0113695
0.000728205
0.011406
0.000868029
0.0114827
0.000943619
0.0115364
0.00112704
0.0116069
0.00124112
0.0116753
0.00146843
0.0117219
0.00165504
0.0117856
0.00192972
0.0117829
0.00221005
0.0118064
0.00252974
0.0117292
0.00292192
0.00330035
0.0116516
0.0100028
-1.05352e-05
0.0100118
-3.22096e-05
0.0100255
-5.1828e-05
0.010043
-6.80198e-05
0.0100628
-8.19747e-05
0.0100821
-8.694e-05
0.0101033
-9.61062e-05
0.010122
-9.45666e-05
0.0101441
-0.000102247
0.0101635
-0.000100377
0.0101868
-0.000105515
0.0102087
-0.000109479
0.0102312
-0.000105611
0.0102565
-0.000119436
0.0102762
-0.000103982
0.0103047
-0.000125577
0.0103223
-0.000104691
0.0103521
-0.000124355
0.0103706
-0.00011178
0.0103979
-0.000114659
0.0104214
-0.000124588
0.0104427
-0.000102389
0.010473
-0.000133919
0.0104885
-9.71934e-05
0.0105225
-0.000131509
0.0105369
-0.000103908
0.0105682
-0.000115271
0.0105886
-0.000118462
0.0106107
-9.62063e-05
0.0106403
-0.000125051
0.010654
-8.90841e-05
0.0106882
-0.000115786
0.0106999
-9.44341e-05
0.0107309
-9.54806e-05
0.0107471
-9.84702e-05
0.0107705
-8.1118e-05
0.0107912
-8.79683e-05
0.0108102
-7.56448e-05
0.0108308
-6.97321e-05
0.01085
-7.14888e-05
0.0108641
-4.79364e-05
0.0108873
-5.88243e-05
0.0108956
-2.97065e-05
0.0109182
-3.92463e-05
0.0109279
-1.7827e-05
0.0109397
-7.43335e-06
0.0109586
-3.56574e-06
0.0109603
1.99073e-05
0.0109808
2.4479e-05
0.0109818
3.95091e-05
0.0109979
5.80359e-05
0.0110012
6.84201e-05
0.0110165
8.22182e-05
0.0110187
0.000106076
0.011038
0.000110515
0.01104
0.000140124
0.0110628
0.000151816
0.0110685
0.000176959
0.0110947
0.000195854
0.0111056
0.000230166
0.0111376
0.000243813
0.0111528
0.000299646
0.011194
0.000307033
0.0112167
0.000381624
0.0112625
0.000399888
0.011304
0.0004792
0.01135
0.000521233
0.0114143
0.000608692
0.0114659
0.000676618
0.0115538
0.000780101
0.0116125
0.00088499
0.011726
0.00101347
0.0117907
0.00117641
0.011918
0.00134112
0.0119837
0.00158937
0.0120946
0.00181879
0.0121398
0.0021649
0.012196
0.0024735
0.0121726
0.00294531
0.00336981
0.0121032
0.010004
-1.45635e-05
0.0100167
-4.48495e-05
0.0100349
-7.00427e-05
0.0100563
-8.94217e-05
0.0100784
-0.000104069
0.0100985
-0.000107083
0.0101205
-0.00011805
0.0101388
-0.000112879
0.010163
-0.000126435
0.0101813
-0.000118747
0.0102082
-0.00013242
0.0102276
-0.000128824
0.0102543
-0.0001323
0.0102766
-0.000141801
0.0102991
-0.000126456
0.0103269
-0.000153335
0.0103435
-0.000121288
0.0103771
-0.00015803
0.0103896
-0.000124255
0.0104256
-0.000150639
0.0104397
-0.000138691
0.010471
-0.000133664
0.0104928
-0.00015579
0.0105149
-0.000119207
0.010546
-0.000162635
0.0105599
-0.000117803
0.0105958
-0.000151198
0.0106087
-0.000131307
0.0106407
-0.000128237
0.0106602
-0.000144602
0.0106834
-0.000112209
0.0107109
-0.000143352
0.0107264
-0.000109897
0.010757
-0.000126067
0.0107716
-0.000113114
0.0107977
-0.000107238
0.0108175
-0.00010775
0.0108348
-9.2955e-05
0.0108611
-9.59584e-05
0.0108715
-8.19285e-05
0.0108974
-7.38488e-05
0.0109088
-7.02024e-05
0.0109272
-4.81109e-05
0.0109435
-5.55477e-05
0.010956
-3.02921e-05
0.0109697
-2.12028e-05
0.0109848
-1.86298e-05
0.010991
1.37504e-05
0.0110078
7.62807e-06
0.0110127
3.46134e-05
0.0110254
4.53499e-05
0.0110332
6.05587e-05
0.0110435
7.19737e-05
0.0110544
9.51398e-05
0.011065
9.99026e-05
0.0110792
0.000125935
0.0110932
0.000137872
0.0111121
0.000157996
0.0111287
0.000179287
0.0111596
0.000199228
0.0111725
0.000230961
0.0112209
0.000251239
0.0112355
0.00029242
0.0112953
0.000321783
0.0113189
0.000376347
0.0113933
0.000404801
0.0114266
0.000487971
0.0115204
0.000514864
0.0115696
0.000627395
0.0116818
0.000667946
0.0117566
0.000810171
0.0118892
0.000880839
0.0119958
0.00106979
0.0121449
0.00119201
0.012274
0.00146028
0.0124204
0.00167242
0.0125419
0.00204342
0.0126383
0.00237705
0.0127017
0.00288194
0.00340768
0.0126638
0.0100066
-2.1205e-05
0.0100269
-6.51467e-05
0.0100517
-9.47725e-05
0.0100771
-0.00011489
0.0101005
-0.000127384
0.0101223
-0.000128924
0.0101439
-0.000139652
0.010164
-0.000132989
0.0101881
-0.000150503
0.0102092
-0.000139869
0.0102359
-0.00015911
0.0102571
-0.000150044
0.0102835
-0.000158712
0.0103055
-0.000163821
0.0103293
-0.000150192
0.0103543
-0.000178402
0.0103741
-0.000141021
0.0104036
-0.000187575
0.0104194
-0.000140012
0.0104523
-0.000183566
0.0104664
-0.000152791
0.0104987
-0.000165986
0.0105154
-0.000172439
0.0105428
-0.0001466
0.0105651
-0.000185006
0.0105851
-0.000137816
0.010614
-0.000180078
0.0106278
-0.000145081
0.0106597
-0.00016013
0.0106721
-0.000157019
0.0107015
-0.000141631
0.0107177
-0.000159534
0.0107397
-0.000131882
0.0107624
-0.000148747
0.0107763
-0.000127043
0.0108026
-0.000133539
0.0108143
-0.000119451
0.0108374
-0.00011608
0.0108523
-0.000110865
0.0108685
-9.81259e-05
0.0108841