/*--------------------------------*- C++ -*----------------------------------*\
| =========                 |                                                 |
| \\      /  F ield         | OpenFOAM: The Open Source CFD Toolbox           |
|  \\    /   O peration     | Version:  2306                                  |
|   \\  /    A nd           | Website:  www.openfoam.com                      |
|    \\/     M anipulation  |                                                 |
\*---------------------------------------------------------------------------*/
FoamFile
{
    version     2.0;
    format      ascii;
    arch        "LSB;label=32;scalar=64";
    class       volVectorField;
    location    "0.075";
    object      U;
}
// * * * * * * * * * * * * * * * * * * * * * * * * * * * * * * * * * * * * * //

dimensions      [0 1 -1 0 0 0 0];

internalField   nonuniform List<vector> 
4400
(
(9.90182 0.0455058 0)
(9.80628 0.0987191 0)
(9.70014 0.120913 0)
(9.57033 0.125784 0)
(9.41825 0.124438 0)
(9.2525 0.12334 0)
(9.081 0.124142 0)
(8.90864 0.125636 0)
(8.73787 0.126891 0)
(8.56869 0.127449 0)
(8.40086 0.12679 0)
(8.23458 0.1254 0)
(8.06933 0.123683 0)
(7.90493 0.121488 0)
(7.74198 0.119336 0)
(7.58038 0.117291 0)
(7.42004 0.114957 0)
(7.2617 0.112734 0)
(7.1052 0.110556 0)
(6.95033 0.107992 0)
(6.79789 0.105536 0)
(6.64748 0.103219 0)
(6.49877 0.100425 0)
(6.3529 0.0976043 0)
(6.20961 0.0951111 0)
(6.0684 0.0921545 0)
(5.93083 0.0888393 0)
(5.79699 0.0860345 0)
(5.66493 0.0831236 0)
(5.53528 0.079432 0)
(5.4101 0.0760617 0)
(5.28912 0.073452 0)
(5.17115 0.0700071 0)
(5.05673 0.0649007 0)
(4.94703 0.0598903 0)
(4.84199 0.0562711 0)
(4.7413 0.0527443 0)
(4.64506 0.047953 0)
(4.55377 0.0422912 0)
(4.46803 0.0367476 0)
(4.38814 0.0317387 0)
(4.31434 0.0271695 0)
(4.2461 0.0226679 0)
(4.18349 0.017963 0)
(4.1267 0.0130872 0)
(4.07601 0.00821113 0)
(4.0317 0.00357094 0)
(3.99306 -0.000881893 0)
(3.96038 -0.00462025 0)
(3.93243 -0.00693122 0)
(3.90865 -0.00701025 0)
(3.88711 -0.00513499 0)
(3.8653 -0.00133683 0)
(3.84224 0.00393718 0)
(3.81449 0.0102995 0)
(3.78162 0.0183014 0)
(3.7405 0.0263524 0)
(3.69031 0.0355393 0)
(3.62979 0.0442856 0)
(3.55693 0.0534597 0)
(3.47194 0.0631117 0)
(3.37203 0.0725819 0)
(3.25705 0.0838295 0)
(3.12454 0.0949452 0)
(2.97276 0.108606 0)
(2.7995 0.123002 0)
(2.60211 0.140063 0)
(2.37707 0.158958 0)
(2.12266 0.18026 0)
(1.83268 0.204077 0)
(1.50723 0.229494 0)
(1.13855 0.257122 0)
(0.727421 0.284135 0)
(0.267857 0.310692 0)
(-0.237753 0.331379 0)
(-0.783867 0.337705 0)
(-1.36108 0.300909 0)
(-1.92375 0.190201 0)
(-2.39874 0.00341311 0)
(-2.7102 -0.196255 0)
(10.0002 0.0611644 0)
(10.0319 0.13743 0)
(10.0697 0.173535 0)
(10.1052 0.184854 0)
(10.1326 0.186042 0)
(10.1504 0.186047 0)
(10.1592 0.188131 0)
(10.1614 0.191791 0)
(10.1596 0.195693 0)
(10.1546 0.198945 0)
(10.1473 0.20091 0)
(10.138 0.20168 0)
(10.1262 0.201746 0)
(10.1121 0.201332 0)
(10.0958 0.200632 0)
(10.0768 0.199861 0)
(10.0556 0.199091 0)
(10.0324 0.198198 0)
(10.007 0.197128 0)
(9.97958 0.196001 0)
(9.95054 0.194705 0)
(9.91952 0.193146 0)
(9.88669 0.19151 0)
(9.85255 0.189792 0)
(9.81678 0.187707 0)
(9.77942 0.185309 0)
(9.74135 0.182887 0)
(9.70246 0.180212 0)
(9.6617 0.177144 0)
(9.61988 0.174007 0)
(9.57788 0.171001 0)
(9.53488 0.16773 0)
(9.49061 0.163602 0)
(9.44594 0.158993 0)
(9.40219 0.154108 0)
(9.35816 0.149175 0)
(9.31332 0.144255 0)
(9.26831 0.1389 0)
(9.22374 0.133188 0)
(9.18067 0.12639 0)
(9.13745 0.119436 0)
(9.0953 0.112553 0)
(9.05344 0.105771 0)
(9.01237 0.0990239 0)
(8.97342 0.0911169 0)
(8.93459 0.0838181 0)
(8.8986 0.0761834 0)
(8.86164 0.0695365 0)
(8.82652 0.0628857 0)
(8.7913 0.0565067 0)
(8.75501 0.0523085 0)
(8.7219 0.048409 0)
(8.68299 0.0480876 0)
(8.64815 0.0489067 0)
(8.60684 0.0533187 0)
(8.5655 0.060345 0)
(8.52208 0.0691523 0)
(8.46882 0.0819051 0)
(8.41869 0.0951194 0)
(8.35085 0.111965 0)
(8.28519 0.130427 0)
(8.20182 0.150913 0)
(8.11093 0.175036 0)
(8.00788 0.200995 0)
(7.88452 0.230609 0)
(7.75161 0.264846 0)
(7.59041 0.300826 0)
(7.41324 0.344836 0)
(7.20734 0.389679 0)
(6.97143 0.443159 0)
(6.70929 0.499363 0)
(6.40305 0.560319 0)
(6.06876 0.627217 0)
(5.68305 0.690847 0)
(5.26256 0.760318 0)
(4.7903 0.812851 0)
(4.27232 0.854771 0)
(3.69883 0.857091 0)
(3.07004 0.818435 0)
(2.37469 0.732836 0)
(10.0001 0.0266844 0)
(10.0168 0.0697728 0)
(10.0428 0.0997589 0)
(10.0749 0.11739 0)
(10.1083 0.126673 0)
(10.1398 0.131607 0)
(10.1675 0.135617 0)
(10.1915 0.140097 0)
(10.2134 0.144907 0)
(10.2339 0.149994 0)
(10.2539 0.154602 0)
(10.2741 0.158102 0)
(10.2943 0.161086 0)
(10.3141 0.163514 0)
(10.3337 0.165088 0)
(10.3527 0.166588 0)
(10.371 0.168142 0)
(10.3885 0.169121 0)
(10.4055 0.170008 0)
(10.4217 0.17116 0)
(10.437 0.171856 0)
(10.4516 0.172085 0)
(10.4654 0.172558 0)
(10.4783 0.172891 0)
(10.4903 0.17239 0)
(10.5015 0.17185 0)
(10.5122 0.171381 0)
(10.522 0.170176 0)
(10.5308 0.168519 0)
(10.5388 0.167172 0)
(10.5458 0.166067 0)
(10.5514 0.163744 0)
(10.5557 0.160935 0)
(10.5595 0.158196 0)
(10.563 0.15498 0)
(10.5654 0.151139 0)
(10.5666 0.146612 0)
(10.5661 0.143196 0)
(10.5644 0.138765 0)
(10.5619 0.132857 0)
(10.5587 0.12599 0)
(10.5548 0.119219 0)
(10.5485 0.114224 0)
(10.5409 0.107627 0)
(10.5321 0.100819 0)
(10.5218 0.0928601 0)
(10.5116 0.0857806 0)
(10.4972 0.0799047 0)
(10.4822 0.0735745 0)
(10.4647 0.0693033 0)
(10.444 0.0660388 0)
(10.4249 0.0656342 0)
(10.398 0.0681414 0)
(10.3761 0.0731741 0)
(10.3462 0.0814803 0)
(10.317 0.0936032 0)
(10.2871 0.106675 0)
(10.2473 0.125713 0)
(10.215 0.144104 0)
(10.1653 0.167488 0)
(10.1234 0.193814 0)
(10.0656 0.22052 0)
(10.0065 0.256427 0)
(9.93982 0.289339 0)
(9.85861 0.335273 0)
(9.77834 0.379144 0)
(9.6716 0.436402 0)
(9.56868 0.495342 0)
(9.43471 0.564703 0)
(9.29632 0.642784 0)
(9.13342 0.722484 0)
(8.94824 0.821167 0)
(8.74912 0.909059 0)
(8.5133 1.01948 0)
(8.26152 1.11138 0)
(7.97281 1.20842 0)
(7.64357 1.28229 0)
(7.27642 1.3283 0)
(6.83574 1.34991 0)
(6.33671 1.33792 0)
(10.0001 0.0187698 0)
(10.0101 0.0526542 0)
(10.0277 0.0805229 0)
(10.0513 0.101057 0)
(10.0779 0.114592 0)
(10.1055 0.122786 0)
(10.1321 0.128085 0)
(10.1566 0.132175 0)
(10.1799 0.135791 0)
(10.2023 0.139695 0)
(10.224 0.143542 0)
(10.2463 0.146694 0)
(10.2692 0.149567 0)
(10.292 0.15193 0)
(10.3154 0.153365 0)
(10.3394 0.15461 0)
(10.3629 0.155819 0)
(10.3862 0.156385 0)
(10.4102 0.156877 0)
(10.4338 0.157761 0)
(10.4567 0.15815 0)
(10.4799 0.158188 0)
(10.5032 0.158634 0)
(10.5255 0.158893 0)
(10.5476 0.158361 0)
(10.5702 0.157812 0)
(10.5922 0.157635 0)
(10.6136 0.156511 0)
(10.6352 0.15493 0)
(10.6568 0.153996 0)
(10.6771 0.153052 0)
(10.696 0.151384 0)
(10.7149 0.148742 0)
(10.7333 0.147008 0)
(10.7511 0.144543 0)
(10.7682 0.140932 0)
(10.7851 0.13749 0)
(10.8005 0.1343 0)
(10.813 0.131987 0)
(10.8242 0.126631 0)
(10.8362 0.121181 0)
(10.8474 0.115895 0)
(10.8566 0.112023 0)
(10.8615 0.108346 0)
(10.865 0.102136 0)
(10.8686 0.0977661 0)
(10.8693 0.0918468 0)
(10.8692 0.090352 0)
(10.8627 0.0864344 0)
(10.8575 0.0860352 0)
(10.8468 0.0861391 0)
(10.8366 0.0876462 0)
(10.8226 0.0956515 0)
(10.805 0.0994921 0)
(10.7905 0.113793 0)
(10.7642 0.123185 0)
(10.7508 0.14089 0)
(10.717 0.16026 0)
(10.6992 0.18058 0)
(10.664 0.209031 0)
(10.6323 0.236419 0)
(10.6008 0.270752 0)
(10.5498 0.309103 0)
(10.5187 0.351828 0)
(10.4525 0.400214 0)
(10.4113 0.458607 0)
(10.3366 0.517744 0)
(10.2759 0.594038 0)
(10.1925 0.671048 0)
(10.1107 0.761241 0)
(10.0116 0.861649 0)
(9.9082 0.963738 0)
(9.78993 1.0821 0)
(9.65735 1.19552 0)
(9.51809 1.31703 0)
(9.34576 1.43097 0)
(9.16689 1.53407 0)
(8.93874 1.62741 0)
(8.68201 1.69291 0)
(8.36704 1.75784 0)
(10.0001 0.0133209 0)
(10.0069 0.0384206 0)
(10.0195 0.0603206 0)
(10.0372 0.0777023 0)
(10.0583 0.0903094 0)
(10.0819 0.0986176 0)
(10.1061 0.104003 0)
(10.1293 0.107821 0)
(10.1523 0.110763 0)
(10.1747 0.113631 0)
(10.1962 0.116667 0)
(10.2182 0.119382 0)
(10.241 0.121868 0)
(10.2633 0.124217 0)
(10.2863 0.125862 0)
(10.3104 0.127091 0)
(10.3339 0.128314 0)
(10.3573 0.129043 0)
(10.382 0.129516 0)
(10.4061 0.130177 0)
(10.4295 0.13081 0)
(10.4537 0.130976 0)
(10.4781 0.131377 0)
(10.5012 0.131898 0)
(10.5242 0.131666 0)
(10.5484 0.131473 0)
(10.5719 0.131209 0)
(10.5944 0.130866 0)
(10.6181 0.129737 0)
(10.6421 0.128858 0)
(10.6644 0.128552 0)
(10.685 0.126994 0)
(10.7064 0.125748 0)
(10.7279 0.123943 0)
(10.7476 0.122694 0)
(10.7672 0.119975 0)
(10.7877 0.116782 0)
(10.8067 0.115108 0)
(10.822 0.11283 0)
(10.8354 0.110503 0)
(10.8502 0.105661 0)
(10.8672 0.102629 0)
(10.8786 0.0995871 0)
(10.8884 0.0979348 0)
(10.8931 0.0943932 0)
(10.9016 0.0913515 0)
(10.9076 0.0897873 0)
(10.9092 0.0875691 0)
(10.911 0.0898946 0)
(10.9035 0.0875813 0)
(10.9045 0.0928364 0)
(10.8924 0.0949343 0)
(10.8884 0.103251 0)
(10.8739 0.112361 0)
(10.8617 0.122668 0)
(10.8487 0.139778 0)
(10.8297 0.15373 0)
(10.8156 0.179748 0)
(10.7922 0.199308 0)
(10.7739 0.233129 0)
(10.7465 0.262205 0)
(10.7235 0.301521 0)
(10.6896 0.343632 0)
(10.6617 0.390063 0)
(10.6191 0.445774 0)
(10.5861 0.504961 0)
(10.5346 0.575384 0)
(10.4912 0.652181 0)
(10.4382 0.739824 0)
(10.3734 0.83575 0)
(10.3238 0.943454 0)
(10.237 1.05524 0)
(10.1808 1.18162 0)
(10.0805 1.30529 0)
(10.0032 1.43953 0)
(9.88913 1.56618 0)
(9.77716 1.69735 0)
(9.63328 1.80786 0)
(9.47144 1.93023 0)
(9.27318 2.0186 0)
(10.0001 0.009603 0)
(10.0052 0.0279941 0)
(10.015 0.0446378 0)
(10.0291 0.0586161 0)
(10.0464 0.0695997 0)
(10.0667 0.0774784 0)
(10.0885 0.0828157 0)
(10.1104 0.0866394 0)
(10.1326 0.0894291 0)
(10.1549 0.0917825 0)
(10.1762 0.0942566 0)
(10.198 0.0965564 0)
(10.2205 0.0986031 0)
(10.2424 0.10074 0)
(10.2648 0.102442 0)
(10.2886 0.103568 0)
(10.3118 0.104772 0)
(10.3348 0.105632 0)
(10.3592 0.106003 0)
(10.3835 0.106501 0)
(10.4066 0.107187 0)
(10.4305 0.107474 0)
(10.4552 0.107494 0)
(10.4781 0.10824 0)
(10.5008 0.10838 0)
(10.5248 0.108017 0)
(10.5485 0.108002 0)
(10.5709 0.10779 0)
(10.5941 0.107516 0)
(10.6187 0.106241 0)
(10.6409 0.106168 0)
(10.6613 0.105644 0)
(10.6831 0.104169 0)
(10.7046 0.103621 0)
(10.7245 0.101868 0)
(10.7436 0.101362 0)
(10.764 0.0983113 0)
(10.7856 0.0972091 0)
(10.7995 0.0964172 0)
(10.814 0.0945213 0)
(10.8278 0.0929903 0)
(10.8455 0.0888312 0)
(10.861 0.0895336 0)
(10.8667 0.0872978 0)
(10.8778 0.0878405 0)
(10.8806 0.0857101 0)
(10.8941 0.0849606 0)
(10.894 0.0869964 0)
(10.8968 0.0869406 0)
(10.8956 0.0918983 0)
(10.8902 0.0942573 0)
(10.8934 0.102112 0)
(10.8785 0.110568 0)
(10.8802 0.12166 0)
(10.8617 0.135808 0)
(10.8575 0.152288 0)
(10.8428 0.171508 0)
(10.8283 0.196685 0)
(10.8168 0.220747 0)
(10.7959 0.254966 0)
(10.7799 0.288342 0)
(10.7605 0.326902 0)
(10.7331 0.377068 0)
(10.7146 0.419521 0)
(10.6815 0.484956 0)
(10.6521 0.543478 0)
(10.6233 0.617818 0)
(10.5765 0.701523 0)
(10.5522 0.787632 0)
(10.4894 0.895752 0)
(10.4657 0.998308 0)
(10.3898 1.12649 0)
(10.3586 1.24861 0)
(10.2745 1.38625 0)
(10.2247 1.52664 0)
(10.1317 1.66594 0)
(10.0499 1.81061 0)
(9.94417 1.9508 0)
(9.81305 2.08293 0)
(9.68225 2.221 0)
(10.0001 0.00684767 0)
(10.0043 0.0201084 0)
(10.0124 0.03237 0)
(10.0243 0.0430409 0)
(10.0392 0.0518482 0)
(10.057 0.058588 0)
(10.077 0.0633998 0)
(10.0975 0.0668668 0)
(10.1189 0.0693916 0)
(10.1409 0.0712868 0)
(10.1621 0.0731912 0)
(10.1835 0.0750194 0)
(10.206 0.0765722 0)
(10.2278 0.0783298 0)
(10.2496 0.0797712 0)
(10.2731 0.0808428 0)
(10.2962 0.0817703 0)
(10.3186 0.0826681 0)
(10.3428 0.0830525 0)
(10.3671 0.0832496 0)
(10.3901 0.084115 0)
(10.4136 0.0840917 0)
(10.4385 0.0844085 0)
(10.4615 0.0847862 0)
(10.4834 0.0852306 0)
(10.5074 0.0851554 0)
(10.5311 0.0847552 0)
(10.5534 0.0856374 0)
(10.5761 0.0845954 0)
(10.6006 0.0843625 0)
(10.6233 0.0840265 0)
(10.6433 0.084148 0)
(10.6641 0.0837588 0)
(10.6865 0.0821575 0)
(10.7058 0.082683 0)
(10.7248 0.0816569 0)
(10.7453 0.0808132 0)
(10.7656 0.0794752 0)
(10.7833 0.0796953 0)
(10.7923 0.0794507 0)
(10.8109 0.078559 0)
(10.8245 0.0769024 0)
(10.8441 0.0766924 0)
(10.8503 0.078613 0)
(10.8568 0.0775591 0)
(10.8676 0.0799753 0)
(10.8715 0.0787643 0)
(10.8849 0.0829544 0)
(10.8781 0.0864319 0)
(10.8855 0.0907726 0)
(10.8799 0.098292 0)
(10.8818 0.105458 0)
(10.8774 0.116868 0)
(10.8715 0.129569 0)
(10.8654 0.144665 0)
(10.8575 0.162319 0)
(10.8488 0.184498 0)
(10.8387 0.206481 0)
(10.8281 0.237687 0)
(10.8134 0.266973 0)
(10.8033 0.305353 0)
(10.784 0.345937 0)
(10.7709 0.393837 0)
(10.7508 0.444037 0)
(10.7302 0.507144 0)
(10.7086 0.571261 0)
(10.6848 0.645957 0)
(10.6532 0.735713 0)
(10.6335 0.820812 0)
(10.5846 0.936478 0)
(10.5729 1.03936 0)
(10.5034 1.17496 0)
(10.4923 1.2992 0)
(10.4112 1.44776 0)
(10.3796 1.59142 0)
(10.2948 1.74809 0)
(10.227 1.9006 0)
(10.1333 2.06185 0)
(10.0178 2.21719 0)
(9.90747 2.36779 0)
(10 0.00462517 0)
(10.0038 0.0136364 0)
(10.0109 0.0220758 0)
(10.0215 0.0295707 0)
(10.0348 0.0359233 0)
(10.051 0.0409838 0)
(10.0695 0.0447336 0)
(10.089 0.0474447 0)
(10.1095 0.0494754 0)
(10.1311 0.0509082 0)
(10.1523 0.0522239 0)
(10.1735 0.0536015 0)
(10.1959 0.0546494 0)
(10.2177 0.0559408 0)
(10.2392 0.0570291 0)
(10.2624 0.0579146 0)
(10.2853 0.0586254 0)
(10.3076 0.0592787 0)
(10.3313 0.0598499 0)
(10.3559 0.0597731 0)
(10.3787 0.0605854 0)
(10.402 0.0606853 0)
(10.4269 0.0607951 0)
(10.4499 0.0614644 0)
(10.4718 0.0614395 0)
(10.4953 0.0621744 0)
(10.5193 0.0615066 0)
(10.5416 0.0624586 0)
(10.563 0.0622573 0)
(10.5887 0.0614545 0)
(10.6109 0.0626074 0)
(10.631 0.0617508 0)
(10.6518 0.0630156 0)
(10.6725 0.0614398 0)
(10.6955 0.0624825 0)
(10.7097 0.0630417 0)
(10.7337 0.061464 0)
(10.7525 0.0628659 0)
(10.77 0.0615028 0)
(10.7832 0.0645633 0)
(10.7927 0.0638044 0)
(10.8175 0.0632889 0)
(10.8269 0.0660408 0)
(10.8433 0.0652524 0)
(10.8431 0.0703634 0)
(10.8559 0.0701828 0)
(10.8646 0.0735983 0)
(10.8717 0.0792804 0)
(10.8763 0.0823798 0)
(10.8741 0.0919231 0)
(10.8788 0.0972971 0)
(10.8771 0.108218 0)
(10.8774 0.119981 0)
(10.8736 0.133081 0)
(10.8692 0.150404 0)
(10.864 0.168469 0)
(10.8609 0.190402 0)
(10.8492 0.216481 0)
(10.8489 0.244641 0)
(10.8327 0.27848 0)
(10.8306 0.316591 0)
(10.8166 0.358436 0)
(10.8073 0.408282 0)
(10.7966 0.460211 0)
(10.7801 0.525062 0)
(10.7693 0.589776 0)
(10.7521 0.669384 0)
(10.7288 0.757638 0)
(10.7227 0.848416 0)
(10.6775 0.963777 0)
(10.6836 1.07235 0)
(10.6155 1.21142 0)
(10.6269 1.338 0)
(10.5395 1.49944 0)
(10.5355 1.64635 0)
(10.4418 1.81546 0)
(10.3952 1.98682 0)
(10.2998 2.15645 0)
(10.1948 2.33652 0)
(10.083 2.51069 0)
(10 0.00268398 0)
(10.0035 0.00794772 0)
(10.01 0.0128853 0)
(10.0198 0.0173473 0)
(10.0323 0.0211586 0)
(10.0474 0.0242814 0)
(10.065 0.0266655 0)
(10.0837 0.028349 0)
(10.1038 0.0297504 0)
(10.125 0.0305671 0)
(10.1461 0.0314691 0)
(10.1672 0.0322413 0)
(10.1895 0.0329292 0)
(10.2113 0.0337525 0)
(10.2327 0.0343232 0)
(10.2557 0.035226 0)
(10.2785 0.0352873 0)
(10.3008 0.0362375 0)
(10.3241 0.0362836 0)
(10.3487 0.0365167 0)
(10.3717 0.0371626 0)
(10.3946 0.0369234 0)
(10.4197 0.0379182 0)
(10.4427 0.0372986 0)
(10.4646 0.0387239 0)
(10.4876 0.0384495 0)
(10.5121 0.038517 0)
(10.5338 0.0397517 0)
(10.5561 0.0388202 0)
(10.58 0.040347 0)
(10.6047 0.0394764 0)
(10.6226 0.0409024 0)
(10.6445 0.0416212 0)
(10.6656 0.0409221 0)
(10.6865 0.043046 0)
(10.7053 0.0426669 0)
(10.7217 0.0438714 0)
(10.7493 0.0446829 0)
(10.7599 0.04526 0)
(10.7787 0.0482126 0)
(10.7853 0.0487837 0)
(10.8085 0.0501738 0)
(10.8248 0.0527017 0)
(10.8328 0.0554701 0)
(10.8431 0.0589266 0)
(10.8471 0.0639025 0)
(10.8632 0.0658626 0)
(10.869 0.0749127 0)
(10.8742 0.0780887 0)
(10.8746 0.0889157 0)
(10.8802 0.0960944 0)
(10.8779 0.107684 0)
(10.8864 0.120432 0)
(10.8759 0.135521 0)
(10.8834 0.152405 0)
(10.8742 0.172204 0)
(10.8762 0.196301 0)
(10.8718 0.219351 0)
(10.8671 0.253762 0)
(10.8653 0.28251 0)
(10.858 0.325831 0)
(10.858 0.364599 0)
(10.8469 0.418421 0)
(10.8488 0.467685 0)
(10.8356 0.536962 0)
(10.8351 0.598512 0)
(10.823 0.684401 0)
(10.8161 0.769122 0)
(10.8088 0.863162 0)
(10.7879 0.98441 0)
(10.789 1.0883 0)
(10.7508 1.23861 0)
(10.7501 1.36643 0)
(10.7005 1.53755 0)
(10.6778 1.69009 0)
(10.6198 1.88087 0)
(10.5613 2.05276 0)
(10.4784 2.25816 0)
(10.3913 2.44276 0)
(10.2441 2.64858 0)
(10 0.000883355 0)
(10.0033 0.00265742 0)
(10.0096 0.00427637 0)
(10.0191 0.00579043 0)
(10.0311 0.00707338 0)
(10.0458 0.0081256 0)
(10.0628 0.00902398 0)
(10.0813 0.00952351 0)
(10.101 0.0101813 0)
(10.122 0.0103399 0)
(10.1431 0.0108149 0)
(10.1641 0.011062 0)
(10.1865 0.011269 0)
(10.2081 0.0118585 0)
(10.2297 0.0116814 0)
(10.2524 0.012661 0)
(10.2753 0.0121347 0)
(10.2976 0.013112 0)
(10.3204 0.0129996 0)
(10.3456 0.0130247 0)
(10.3681 0.0141069 0)
(10.3914 0.0130678 0)
(10.4163 0.0150435 0)
(10.4391 0.0136408 0)
(10.4621 0.0154733 0)
(10.4832 0.0153226 0)
(10.5097 0.0152143 0)
(10.5302 0.0173505 0)
(10.5521 0.0156211 0)
(10.5785 0.0187044 0)
(10.5986 0.0172735 0)
(10.6237 0.0193408 0)
(10.6373 0.0208519 0)
(10.6657 0.0196046 0)
(10.6822 0.0240366 0)
(10.7016 0.0220254 0)
(10.7224 0.0258155 0)
(10.7419 0.0277417 0)
(10.7637 0.0264677 0)
(10.7715 0.0347536 0)
(10.787 0.0302541 0)
(10.8051 0.0389261 0)
(10.8244 0.0395052 0)
(10.8335 0.0429307 0)
(10.8435 0.0513884 0)
(10.8464 0.051218 0)
(10.8683 0.0615827 0)
(10.8665 0.0656458 0)
(10.884 0.0739106 0)
(10.8736 0.0839723 0)
(10.8914 0.0936667 0)
(10.8833 0.1043 0)
(10.8973 0.122847 0)
(10.8901 0.130564 0)
(10.8948 0.158474 0)
(10.8959 0.169019 0)
(10.8923 0.200249 0)
(10.8994 0.22047 0)
(10.891 0.255584 0)
(10.9 0.283845 0)
(10.8915 0.32815 0)
(10.9019 0.366179 0)
(10.8919 0.418377 0)
(10.9061 0.472891 0)
(10.892 0.533546 0)
(10.911 0.607024 0)
(10.8935 0.680654 0)
(10.9126 0.77744 0)
(10.8979 0.864273 0)
(10.9077 0.991975 0)
(10.9002 1.09508 0)
(10.8925 1.25309 0)
(10.8937 1.38023 0)
(10.8534 1.56726 0)
(10.8652 1.72325 0)
(10.7741 1.92897 0)
(10.7907 2.12807 0)
(10.637 2.32827 0)
(10.6347 2.57783 0)
(10.4228 2.76043 0)
(10 -0.000873246 0)
(10.0033 -0.0024952 0)
(10.0096 -0.00417604 0)
(10.0191 -0.00551349 0)
(10.031 -0.0068405 0)
(10.0458 -0.00778086 0)
(10.0628 -0.00852301 0)
(10.0813 -0.00917317 0)
(10.101 -0.00930304 0)
(10.122 -0.00996087 0)
(10.1432 -0.00958674 0)
(10.1641 -0.0103898 0)
(10.1867 -0.00994455 0)
(10.2081 -0.0103943 0)
(10.2299 -0.0105893 0)
(10.2524 -0.00997993 0)
(10.2754 -0.0112062 0)
(10.2978 -0.00937987 0)
(10.3205 -0.0113272 0)
(10.3459 -0.00915105 0)
(10.3682 -0.0102178 0)
(10.3917 -0.00989828 0)
(10.4166 -0.00809048 0)
(10.4397 -0.0105871 0)
(10.462 -0.00638367 0)
(10.4847 -0.00979637 0)
(10.5089 -0.00613485 0)
(10.5324 -0.00647806 0)
(10.5514 -0.00726148 0)
(10.5803 -0.00215077 0)
(10.5995 -0.00671124 0)
(10.6237 7.12537e-05 0)
(10.6407 -0.00297257 0)
(10.6637 0.000527216 0)
(10.6879 0.00324074 0)
(10.699 0.00220864 0)
(10.7287 0.00807641 0)
(10.7403 0.00789525 0)
(10.769 0.0115509 0)
(10.7724 0.0154399 0)
(10.7917 0.0173487 0)
(10.8077 0.0227699 0)
(10.8303 0.0284871 0)
(10.836 0.0286974 0)
(10.8507 0.0421924 0)
(10.8512 0.0381149 0)
(10.8739 0.0563752 0)
(10.8784 0.0547423 0)
(10.8854 0.0706708 0)
(10.8945 0.076756 0)
(10.8903 0.0899746 0)
(10.9098 0.102403 0)
(10.8998 0.116345 0)
(10.9169 0.133526 0)
(10.9059 0.149859 0)
(10.924 0.1737 0)
(10.9095 0.191742 0)
(10.9354 0.225846 0)
(10.9118 0.244592 0)
(10.9472 0.291771 0)
(10.9183 0.313752 0)
(10.9609 0.374045 0)
(10.9286 0.403587 0)
(10.9774 0.477545 0)
(10.9451 0.520227 0)
(10.9925 0.606902 0)
(10.9716 0.670282 0)
(11.0047 0.772226 0)
(11.0066 0.856444 0)
(11.0103 0.98579 0)
(11.0502 1.09142 0)
(11.0045 1.24553 0)
(11.0864 1.39552 0)
(10.9865 1.55885 0)
(11.0883 1.76932 0)
(10.9447 1.93869 0)
(11.0245 2.20718 0)
(10.8562 2.39068 0)
(10.8566 2.68935 0)
(10.6906 2.9067 0)
(10.0001 -0.00267743 0)
(10.0034 -0.00775624 0)
(10.01 -0.0128273 0)
(10.0198 -0.0170228 0)
(10.0322 -0.0209915 0)
(10.0475 -0.0238949 0)
(10.0649 -0.0261959 0)
(10.0839 -0.0280444 0)
(10.1037 -0.0287756 0)
(10.1252 -0.0304131 0)
(10.1462 -0.029955 0)
(10.1673 -0.0319754 0)
(10.19 -0.0312219 0)
(10.211 -0.0326789 0)
(10.2336 -0.0330483 0)
(10.2554 -0.032568 0)
(10.2793 -0.0347232 0)
(10.3013 -0.0319052 0)
(10.3239 -0.0356124 0)
(10.3508 -0.0315713 0)
(10.3702 -0.0344974 0)
(10.398 -0.0328666 0)
(10.4182 -0.031626 0)
(10.4456 -0.0343486 0)
(10.4654 -0.0290659 0)
(10.4879 -0.0343735 0)
(10.5166 -0.0278021 0)
(10.5317 -0.0308929 0)
(10.5626 -0.0292059 0)
(10.5787 -0.0245609 0)
(10.6099 -0.0297375 0)
(10.625 -0.0201956 0)
(10.6476 -0.0261264 0)
(10.6702 -0.0195071 0)
(10.6918 -0.016041 0)
(10.7071 -0.0212614 0)
(10.7342 -0.00562897 0)
(10.7469 -0.0162645 0)
(10.7773 -0.000838704 0)
(10.7786 -0.00425083 0)
(10.7998 0.0012608 0)
(10.8196 0.0107684 0)
(10.8319 0.0108106 0)
(10.8563 0.019617 0)
(10.8473 0.0269835 0)
(10.8773 0.0298851 0)
(10.872 0.0449918 0)
(10.9032 0.0494541 0)
(10.8894 0.0584052 0)
(10.9166 0.0779459 0)
(10.9009 0.0736185 0)
(10.9316 0.109277 0)
(10.9148 0.0999633 0)
(10.9414 0.13858 0)
(10.9259 0.138202 0)
(10.9511 0.174945 0)
(10.9378 0.182253 0)
(10.9643 0.224802 0)
(10.951 0.236132 0)
(10.9784 0.285107 0)
(10.9724 0.309349 0)
(10.9932 0.357954 0)
(11.003 0.403121 0)
(11.0119 0.454407 0)
(11.0421 0.518988 0)
(11.0353 0.579428 0)
(11.0917 0.668972 0)
(11.0617 0.735733 0)
(11.1528 0.861135 0)
(11.092 0.939057 0)
(11.2166 1.10103 0)
(11.1295 1.2009 0)
(11.2665 1.4071 0)
(11.1695 1.53411 0)
(11.2791 1.78323 0)
(11.1917 1.96177 0)
(11.2247 2.23274 0)
(11.1592 2.48561 0)
(11.0692 2.74986 0)
(11.0177 3.08535 0)
(10.0001 -0.0045873 0)
(10.0037 -0.0134417 0)
(10.0109 -0.0220819 0)
(10.0215 -0.029155 0)
(10.0347 -0.0359542 0)
(10.0512 -0.040375 0)
(10.0693 -0.0445696 0)
(10.0894 -0.0468963 0)
(10.1093 -0.0487083 0)
(10.1316 -0.0508074 0)
(10.1523 -0.0504217 0)
(10.1737 -0.0541036 0)
(10.1967 -0.0518463 0)
(10.2173 -0.056422 0)
(10.2407 -0.0541763 0)
(10.2619 -0.0567861 0)
(10.2868 -0.0573024 0)
(10.3081 -0.054851 0)
(10.3318 -0.060815 0)
(10.358 -0.0520296 0)
(10.3783 -0.0620602 0)
(10.405 -0.0523738 0)
(10.4274 -0.0585394 0)
(10.4516 -0.0564247 0)
(10.4758 -0.0518946 0)
(10.4937 -0.0611939 0)
(10.5277 -0.045708 0)
(10.5379 -0.0608516 0)
(10.5733 -0.0457456 0)
(10.5874 -0.0522 0)
(10.618 -0.0495227 0)
(10.6372 -0.042342 0)
(10.6529 -0.0503317 0)
(10.6871 -0.0362722 0)
(10.6935 -0.0419856 0)
(10.7277 -0.0366506 0)
(10.7356 -0.0288734 0)
(10.769 -0.0323856 0)
(10.7783 -0.0202627 0)
(10.8014 -0.0208974 0)
(10.8029 -0.0167826 0)
(10.8437 -0.000962102 0)
(10.8366 -0.00966175 0)
(10.8773 0.0151419 0)
(10.8596 0.00361021 0)
(10.8932 0.0301602 0)
(10.8936 0.0248886 0)
(10.9131 0.0466705 0)
(10.9177 0.0471802 0)
(10.9257 0.0686324 0)
(10.9326 0.0708323 0)
(10.9433 0.0976646 0)
(10.9489 0.0990145 0)
(10.954 0.12653 0)
(10.9689 0.140117 0)
(10.959 0.156191 0)
(10.9955 0.191065 0)
(10.9682 0.197832 0)
(11.021 0.246341 0)
(10.9862 0.255057 0)
(11.0517 0.31506 0)
(11.009 0.326285 0)
(11.0932 0.403634 0)
(11.0415 0.417842 0)
(11.1392 0.516127 0)
(11.0917 0.537397 0)
(11.1906 0.658154 0)
(11.1577 0.693855 0)
(11.2512 0.836179 0)
(11.2393 0.903482 0)
(11.3187 1.05745 0)
(11.3334 1.18302 0)
(11.3852 1.34465 0)
(11.4289 1.54457 0)
(11.4326 1.72 0)
(11.4977 2.00784 0)
(11.4337 2.20403 0)
(11.4886 2.57368 0)
(11.3537 2.81011 0)
(11.3311 3.21818 0)
(10.0001 -0.00676336 0)
(10.0041 -0.0198744 0)
(10.0124 -0.0325026 0)
(10.0242 -0.0424358 0)
(10.0393 -0.0522135 0)
(10.0572 -0.0576112 0)
(10.0767 -0.0637025 0)
(10.0982 -0.0659625 0)
(10.1182 -0.0689191 0)
(10.142 -0.0712507 0)
(10.1615 -0.0710498 0)
(10.1845 -0.076444 0)
(10.2064 -0.0725107 0)
(10.2274 -0.0806326 0)
(10.2522 -0.0750335 0)
(10.2708 -0.0818014 0)
(10.3008 -0.0788845 0)
(10.3157 -0.0794742 0)
(10.3474 -0.0839367 0)
(10.3664 -0.0749136 0)
(10.3921 -0.0876377 0)
(10.4174 -0.0732804 0)
(10.4368 -0.0857101 0)
(10.469 -0.0768335 0)
(10.4812 -0.0784706 0)
(10.5149 -0.0836609 0)
(10.5324 -0.0683042 0)
(10.5581 -0.0875316 0)
(10.5818 -0.0644056 0)
(10.605 -0.0796789 0)
(10.629 -0.0697002 0)
(10.6542 -0.0641101 0)
(10.6643 -0.077092 0)
(10.7074 -0.0498097 0)
(10.7024 -0.0729786 0)
(10.7501 -0.0477884 0)
(10.7482 -0.0559199 0)
(10.7861 -0.0478157 0)
(10.7999 -0.0399405 0)
(10.8084 -0.0404188 0)
(10.8383 -0.030755 0)
(10.8434 -0.0199605 0)
(10.8771 -0.0220707 0)
(10.8764 -0.00151294 0)
(10.8994 -0.0065336 0)
(10.8998 0.0128976 0)
(10.9295 0.0231247 0)
(10.923 0.0237389 0)
(10.9562 0.0537776 0)
(10.9335 0.0429434 0)
(10.9792 0.0800904 0)
(10.9483 0.074585 0)
(10.998 0.10516 0)
(10.9643 0.107525 0)
(11.0157 0.141722 0)
(10.9792 0.139422 0)
(11.0405 0.188202 0)
(10.9992 0.182363 0)
(11.0636 0.235831 0)
(11.0347 0.243191 0)
(11.0877 0.293635 0)
(11.0821 0.315094 0)
(11.122 0.375104 0)
(11.141 0.403324 0)
(11.1682 0.4761 0)
(11.2169 0.526116 0)
(11.225 0.597405 0)
(11.3134 0.686797 0)
(11.3021 0.757144 0)
(11.4211 0.893382 0)
(11.4066 0.9677 0)
(11.5406 1.16445 0)
(11.5293 1.25785 0)
(11.6628 1.51682 0)
(11.6535 1.66289 0)
(11.7608 1.97571 0)
(11.7472 2.21449 0)
(11.7793 2.56371 0)
(11.7493 2.92306 0)
(11.6557 3.28787 0)
(10.0002 -0.00938406 0)
(10.0049 -0.0278824 0)
(10.0151 -0.0448118 0)
(10.0288 -0.0578717 0)
(10.0466 -0.0704252 0)
(10.0668 -0.0757983 0)
(10.0882 -0.0842425 0)
(10.1113 -0.0844 0)
(10.1317 -0.0905432 0)
(10.1565 -0.0903953 0)
(10.1754 -0.0930711 0)
(10.1992 -0.0981782 0)
(10.2213 -0.0930479 0)
(10.2415 -0.10654 0)
(10.2687 -0.0925912 0)
(10.285 -0.111368 0)
(10.3182 -0.0947209 0)
(10.3311 -0.109314 0)
(10.3641 -0.102509 0)
(10.3848 -0.0995472 0)
(10.4052 -0.114243 0)
(10.4407 -0.0892196 0)
(10.4464 -0.120724 0)
(10.4949 -0.087022 0)
(10.4907 -0.115778 0)
(10.5401 -0.0957026 0)
(10.5466 -0.0993793 0)
(10.5771 -0.108469 0)
(10.6051 -0.0845947 0)
(10.6164 -0.110426 0)
(10.6595 -0.0821119 0)
(10.6608 -0.09793 0)
(10.6992 -0.0895479 0)
(10.7139 -0.0781564 0)
(10.737 -0.0922461 0)
(10.7592 -0.0674542 0)
(10.783 -0.0787487 0)
(10.7966 -0.0657133 0)
(10.8339 -0.0580476 0)
(10.822 -0.0645704 0)
(10.8727 -0.0372069 0)
(10.8612 -0.0516331 0)
(10.9073 -0.0209072 0)
(10.8997 -0.0327634 0)
(10.9263 -0.00859801 0)
(10.9322 -0.00554954 0)
(10.9508 0.0092523 0)
(10.9607 0.0177153 0)
(10.9746 0.0375089 0)
(10.9763 0.0367042 0)
(10.9966 0.0679254 0)
(10.9969 0.0684931 0)
(11.0086 0.0877668 0)
(11.027 0.109099 0)
(11.0147 0.115158 0)
(11.0564 0.14404 0)
(11.0357 0.158245 0)
(11.0834 0.181796 0)
(11.0631 0.204483 0)
(11.1263 0.237526 0)
(11.0914 0.254173 0)
(11.1836 0.311331 0)
(11.1365 0.318576 0)
(11.2459 0.401226 0)
(11.2054 0.409151 0)
(11.3218 0.512353 0)
(11.2933 0.525822 0)
(11.4235 0.655563 0)
(11.405 0.683475 0)
(11.5464 0.8335 0)
(11.5551 0.899806 0)
(11.6878 1.07184 0)
(11.7392 1.19974 0)
(11.8499 1.39614 0)
(11.9369 1.62467 0)
(12.0086 1.86317 0)
(12.1113 2.20555 0)
(12.1081 2.51858 0)
(12.193 2.97302 0)
(12.0525 3.38746 0)
(10.0001 -0.0127252 0)
(10.0066 -0.0386657 0)
(10.0196 -0.0603428 0)
(10.037 -0.0769967 0)
(10.0585 -0.0915056 0)
(10.082 -0.0963059 0)
(10.1058 -0.1066 0)
(10.1303 -0.104161 0)
(10.1511 -0.113713 0)
(10.1771 -0.110494 0)
(10.1941 -0.11719 0)
(10.2213 -0.12002 0)
(10.2397 -0.116659 0)
(10.2647 -0.131027 0)
(10.2887 -0.114006 0)
(10.3076 -0.138441 0)
(10.3416 -0.114013 0)
(10.3507 -0.137993 0)
(10.3924 -0.121181 0)
(10.4008 -0.127874 0)
(10.436 -0.135337 0)
(10.4571 -0.113668 0)
(10.4755 -0.147121 0)
(10.5151 -0.106268 0)
(10.5162 -0.14633 0)
(10.5643 -0.112398 0)
(10.5713 -0.129044 0)
(10.5993 -0.12981 0)
(10.6355 -0.105423 0)
(10.6321 -0.14098 0)
(10.6966 -0.0944228 0)
(10.6724 -0.133427 0)
(10.7374 -0.0992728 0)
(10.7306 -0.111097 0)
(10.7655 -0.106004 0)
(10.7898 -0.0928201 0)
(10.7989 -0.0975409 0)
(10.8378 -0.0848758 0)
(10.8411 -0.0796283 0)
(10.8688 -0.0803479 0)
(10.8814 -0.0559967 0)
(10.9055 -0.0676475 0)
(10.9196 -0.0372851 0)
(10.9388 -0.0453045 0)
(10.9438 -0.027983 0)
(10.9727 -0.00749036 0)
(10.963 -0.0168808 0)
(11.0103 0.0237068 0)
(10.9795 0.0115175 0)
(11.0287 0.0439746 0)
(11.0069 0.0480861 0)
(11.041 0.0704138 0)
(11.0272 0.0754455 0)
(11.0675 0.105308 0)
(11.0381 0.104521 0)
(11.0961 0.137449 0)
(11.0682 0.145479 0)
(11.1161 0.171169 0)
(11.1148 0.187485 0)
(11.1496 0.222296 0)
(11.1643 0.229939 0)
(11.2024 0.290357 0)
(11.2265 0.289347 0)
(11.27 0.362941 0)
(11.3142 0.385209 0)
(11.349 0.443094 0)
(11.4291 0.509378 0)
(11.4614 0.555417 0)
(11.5696 0.661862 0)
(11.6042 0.711191 0)
(11.7594 0.858349 0)
(11.7807 0.930437 0)
(11.9922 1.13044 0)
(12.0052 1.24909 0)
(12.26 1.52254 0)
(12.2547 1.73944 0)
(12.5247 2.10842 0)
(12.4716 2.45814 0)
(12.7089 2.97418 0)
(12.5413 3.44233 0)
(9.99937 -0.0179792 0)
(10.0109 -0.0532517 0)
(10.0264 -0.0803182 0)
(10.0527 -0.100487 0)
(10.0761 -0.11609 0)
(10.1079 -0.119606 0)
(10.1297 -0.132584 0)
(10.1595 -0.125482 0)
(10.1777 -0.143311 0)
(10.2046 -0.130783 0)
(10.2241 -0.151024 0)
(10.2448 -0.140356 0)
(10.2758 -0.150684 0)
(10.2825 -0.155018 0)
(10.3323 -0.141846 0)
(10.3196 -0.170907 0)
(10.3899 -0.131699 0)
(10.3599 -0.180725 0)
(10.4396 -0.130295 0)
(10.4126 -0.175858 0)
(10.4751 -0.144667 0)
(10.4775 -0.155821 0)
(10.5009 -0.166977 0)
(10.5457 -0.134435 0)
(10.5294 -0.181145 0)
(10.6008 -0.125699 0)
(10.577 -0.175468 0)
(10.6339 -0.135628 0)
(10.6416 -0.152579 0)
(10.6571 -0.150827 0)
(10.7047 -0.131743 0)
(10.6896 -0.155248 0)
(10.7441 -0.12274 0)
(10.7432 -0.142491 0)
(10.7664 -0.122852 0)
(10.8003 -0.122352 0)
(10.7941 -0.120046 0)
(10.8412 -0.101977 0)
(10.8354 -0.114464 0)
(10.862 -0.0837553 0)
(10.8811 -0.0938414 0)
(10.8821 -0.0729578 0)
(10.9253 -0.0617652 0)
(10.8999 -0.0650893 0)
(10.9558 -0.035751 0)
(10.9263 -0.034391 0)
(10.9707 -0.0218133 0)
(10.9622 0.00162132 0)
(10.9859 0.00284861 0)
(10.9742 0.0219897 0)
(11.0209 0.0422431 0)
(10.9728 0.0463635 0)
(11.0518 0.0675 0)
(10.991 0.0823173 0)
(11.0682 0.0907188 0)
(11.0199 0.114295 0)
(11.1051 0.124184 0)
(11.0382 0.144766 0)
(11.1666 0.165852 0)
(11.0704 0.176254 0)
(11.2335 0.224193 0)
(11.1293 0.217541 0)
(11.3066 0.285958 0)
(11.2162 0.28233 0)
(11.4026 0.363825 0)
(11.318 0.35795 0)
(11.5374 0.465081 0)
(11.4583 0.463766 0)
(11.6971 0.585322 0)
(11.6483 0.614813 0)
(11.906 0.743303 0)
(11.8902 0.815291 0)
(12.18 0.977236 0)
(12.1967 1.09951 0)
(12.5258 1.33986 0)
(12.5758 1.55026 0)
(12.8969 1.92368 0)
(12.9761 2.30376 0)