/*--------------------------------*- C++ -*----------------------------------*\
| =========                 |                                                 |
| \\      /  F ield         | OpenFOAM: The Open Source CFD Toolbox           |
|  \\    /   O peration     | Version:  2306                                  |
|   \\  /    A nd           | Website:  www.openfoam.com                      |
|    \\/     M anipulation  |                                                 |
\*---------------------------------------------------------------------------*/
FoamFile
{
    version     2.0;
    format      ascii;
    arch        "LSB;label=32;scalar=64";
    class       volScalarField;
    location    "0.325";
    object      p;
}
// * * * * * * * * * * * * * * * * * * * * * * * * * * * * * * * * * * * * * //

dimensions      [0 2 -2 0 0 0 0];

internalField   nonuniform List<scalar> 
4400
(
395.374
394.359
393.452
392.779
392.33
392.023
391.779
391.55
391.317
391.076
390.83
390.583
390.336
390.09
389.846
389.602
389.359
389.116
388.872
388.628
388.383
388.139
387.895
387.651
387.409
387.169
386.93
386.694
386.461
386.231
386.006
385.785
385.569
385.359
385.156
384.961
384.773
384.594
384.424
384.264
384.115
383.977
383.851
383.738
383.637
383.55
383.475
383.415
383.367
383.332
383.309
383.297
383.294
383.298
383.305
383.311
383.313
383.303
383.276
383.224
383.141
383.021
382.864
382.682
382.521
382.433
382.482
382.747
383.261
383.994
384.854
385.562
385.844
385.602
385.443
385.268
385.542
385.676
385.546
385.64
393.912
393.57
393.138
392.696
392.305
391.98
391.712
391.477
391.253
391.028
390.797
390.56
390.319
390.077
389.833
389.591
389.348
389.106
388.863
388.62
388.377
388.134
387.891
387.648
387.407
387.167
386.929
386.693
386.46
386.231
386.005
385.784
385.568
385.358
385.155
384.958
384.769
384.589
384.418
384.256
384.104
383.964
383.835
383.718
383.614
383.523
383.444
383.38
383.327
383.288
383.26
383.243
383.235
383.234
383.237
383.24
383.238
383.226
383.197
383.146
383.062
382.946
382.793
382.62
382.459
382.378
382.448
382.767
383.379
384.289
385.383
386.328
386.392
385.561
385.056
384.705
384.737
385.198
385.424
385.683
393.366
393.201
392.943
392.625
392.291
391.977
391.696
391.446
391.217
390.995
390.772
390.543
390.308
390.068
389.827
389.584
389.341
389.099
388.857
388.615
388.373
388.13
387.888
387.646
387.406
387.166
386.928
386.692
386.459
386.23
386.004
385.782
385.565
385.353
385.148
384.948
384.757
384.572
384.397
384.23
384.072
383.925
383.787
383.661
383.545
383.441
383.348
383.268
383.197
383.138
383.09
383.049
383.018
382.989
382.967
382.941
382.915
382.876
382.828
382.761
382.676
382.571
382.454
382.341
382.267
382.294
382.467
382.834
383.387
384.115
384.884
385.45
385.63
385.441
385.395
385.41
385.628
386.27
385.781
384.901
392.951
392.851
392.677
392.444
392.178
391.906
391.644
391.399
391.169
390.948
390.729
390.506
390.278
390.045
389.808
389.568
389.327
389.086
388.846
388.604
388.363
388.122
387.88
387.64
387.399
387.16
386.922
386.687
386.453
386.223
385.996
385.772
385.554
385.339
385.131
384.928
384.732
384.542
384.361
384.186
384.02
383.862
383.714
383.575
383.445
383.325
383.214
383.114
383.021
382.94
382.863
382.796
382.732
382.674
382.615
382.557
382.494
382.423
382.347
382.256
382.162
382.057
381.962
381.885
381.862
381.918
382.085
382.372
382.776
383.273
383.803
384.266
384.601
384.788
384.869
384.88
384.827
384.771
384.543
384.808
392.652
392.582
392.458
392.283
392.071
391.839
391.601
391.366
391.139
390.919
390.7
390.48
390.256
390.028
389.794
389.558
389.319
389.079
388.839
388.598
388.357
388.115
387.875
387.634
387.393
387.154
386.916
386.679
386.445
386.213
385.984
385.759
385.538
385.321
385.108
384.901
384.7
384.504
384.316
384.132
383.959
383.79
383.63
383.477
383.333
383.196
383.067
382.947
382.831
382.725
382.62
382.525
382.428
382.338
382.241
382.149
382.047
381.944
381.832
381.716
381.597
381.478
381.376
381.293
381.261
381.274
381.374
381.539
381.8
382.115
382.483
382.849
383.167
383.42
383.552
383.661
383.735
383.988
384.411
385.03
392.433
392.381
392.284
392.145
391.971
391.771
391.555
391.334
391.112
390.893
390.675
390.456
390.234
390.009
389.779
389.545
389.308
389.069
388.83
388.589
388.348
388.107
387.866
387.625
387.384
387.144
386.905
386.668
386.432
386.199
385.968
385.741
385.516
385.296
385.079
384.868
384.66
384.458
384.263
384.071
383.888
383.708
383.537
383.371
383.212
383.057
382.912
382.768
382.634
382.5
382.372
382.244
382.12
381.993
381.865
381.736
381.597
381.46
381.312
381.163
381.013
380.866
380.731
380.613
380.529
380.477
380.482
380.536
380.652
380.818
381.029
381.254
381.476
381.666
381.836
381.998
382.25
382.623
383.208
383.891
392.275
392.232
392.151
392.033
391.883
391.707
391.51
391.302
391.088
390.872
390.655
390.436
390.215
389.991
389.763
389.532
389.297
389.06
388.821
388.58
388.339
388.098
387.857
387.615
387.374
387.132
386.893
386.654
386.416
386.181
385.948
385.718
385.489
385.266
385.044
384.828
384.614
384.406
384.203
384.003
383.81
383.62
383.437
383.257
383.085
382.912
382.751
382.585
382.43
382.272
382.118
381.964
381.809
381.65
381.491
381.324
381.152
380.978
380.791
380.61
380.414
380.236
380.043
379.884
379.72
379.6
379.496
379.441
379.417
379.435
379.493
379.558
379.662
379.742
379.88
380.023
380.297
380.66
381.236
381.953
392.163
392.125
392.053
391.949
391.815
391.654
391.472
391.274
391.067
390.855
390.639
390.42
390.2
389.977
389.75
389.521
389.287
389.051
388.812
388.572
388.33
388.089
387.846
387.603
387.361
387.119
386.878
386.637
386.398
386.16
385.925
385.69
385.46
385.23
385.005
384.783
384.564
384.349
384.138
383.929
383.728
383.526
383.331
383.139
382.95
382.765
382.583
382.4
382.223
382.043
381.863
381.684
381.498
381.312
381.118
380.92
380.71
380.503
380.275
380.054
379.814
379.584
379.338
379.111
378.876
378.663
378.462
378.279
378.128
377.992
377.887
377.807
377.736
377.718
377.709
377.794
377.946
378.244
378.707
379.382
392.091
392.056
391.99
391.894
391.769
391.618
391.444
391.254
391.052
390.842
390.627
390.409
390.189
389.966
389.74
389.511
389.278
389.043
388.804
388.563
388.321
388.079
387.835
387.591
387.348
387.104
386.861
386.619
386.377
386.137
385.898
385.659
385.426
385.191
384.963
384.733
384.509
384.287
384.068
383.851
383.64
383.428
383.221
383.017
382.812
382.615
382.412
382.214
382.014
381.815
381.608
381.408
381.189
380.978
380.751
380.52
380.279
380.027
379.768
379.491
379.218
378.915
378.626
378.312
378.009
377.693
377.389
377.086
376.785
376.51
376.228
375.979
375.742
375.545
375.383
375.302
375.29
375.439
375.71
376.246
392.055
392.023
391.958
391.866
391.744
391.598
391.429
391.243
391.043
390.835
390.62
390.402
390.183
389.959
389.733
389.503
389.271
389.035
388.796
388.555
388.312
388.069
387.823
387.578
387.333
387.087
386.843
386.598
386.354
386.111
385.868
385.627
385.388
385.149
384.916
384.681
384.45
384.221
383.994
383.768
383.549
383.324
383.109
382.892
382.672
382.463
382.238
382.029
381.805
381.587
381.357
381.132
380.887
380.649
380.393
380.126
379.855
379.56
379.264
378.938
378.615
378.256
377.898
377.516
377.118
376.715
376.291
375.862
375.423
374.975
374.532
374.08
373.657
373.242
372.877
372.568
372.347
372.243
372.311
372.555
392.053
392.022
391.957
391.865
391.743
391.597
391.427
391.241
391.042
390.832
390.618
390.399
390.18
389.955
389.729
389.499
389.266
389.028
388.788
388.546
388.302
388.058
387.811
387.564
387.317
387.07
386.823
386.575
386.328
386.083
385.835
385.592
385.348
385.105
384.866
384.624
384.388
384.152
383.916
383.684
383.453
383.22
382.994
382.763
382.532
382.308
382.067
381.842
381.599
381.359
381.111
380.86
380.591
380.329
380.038
379.745
379.436
379.107
378.763
378.4
378.015
377.603
377.179
376.715
376.238
375.726
375.192
374.625
374.039
373.421
372.784
372.128
371.475
370.814
370.187
369.603
369.102
368.696
368.477
368.407
392.086
392.054
391.988
391.892
391.765
391.613
391.439
391.25
391.047
390.835
390.62
390.4
390.18
389.954
389.729
389.496
389.263
389.023
388.782
388.538
388.293
388.048
387.798
387.55
387.301
387.051
386.802
386.55
386.302
386.051
385.802
385.553
385.306
385.057
384.813
384.565
384.322
384.082
383.835
383.599
383.355
383.114
382.879
382.631
382.393
382.151
381.897
381.657
381.394
381.138
380.87
380.594
380.304
380.015
379.695
379.373
379.032
378.661
378.284
377.867
377.438
376.959
376.475
375.93
375.364
374.755
374.098
373.396
372.651
371.858
371.003
370.134
369.203
368.263
367.329
366.403
365.546
364.8
364.167
363.791
392.156
392.121
392.05
391.946
391.809
391.647
391.464
391.267
391.058
390.844
390.627
390.406
390.185
389.958
389.731
389.496
389.261
389.019
388.776
388.531
388.284
388.037
387.785
387.536
387.283
387.031
386.78
386.525
386.274
386.019
385.765
385.514
385.259
385.008
384.758
384.505
384.256
384.006
383.753
383.51
383.255
383.009
382.758
382.504
382.252
381.996
381.73
381.474
381.196
380.918
380.638
380.331
380.033
379.705
379.368
379.013
378.641
378.233
377.818
377.358
376.872
376.347
375.79
375.17
374.523
373.803
373.03
372.192
371.283
370.294
369.232
368.093
366.88
365.619
364.283
362.996
361.674
360.473
359.405
358.527
392.265
392.225
392.146
392.028
391.876
391.697
391.5
391.291
391.076
390.858
390.637
390.417
390.193
389.966
389.736
389.499
389.261
389.015
388.773
388.523
388.276
388.026
387.772
387.522
387.265
387.013
386.756
386.499
386.243
385.986
385.727
385.473
385.213
384.956
384.702
384.44
384.189
383.928
383.671
383.42
383.153
382.903
382.639
382.374
382.116
381.839
381.569
381.292
381.001
380.709
380.407
380.083
379.763
379.416
379.046
378.678
378.258
377.832
377.371
376.87
376.341
375.755
375.142
374.444
373.716
372.899
372.006
371.028
369.962
368.774
367.466
366.086
364.503
362.89
361.146
359.306
357.505
355.691
354.026
352.581
392.422
392.373
392.278
392.137
391.961
391.758
391.542
391.321
391.097
390.876
390.653
390.433
390.206
389.978
389.743
389.504
389.262
389.014
388.769
388.517
388.269
388.015
387.76
387.507
387.247
386.993
386.732
386.472
386.213
385.951
385.689
385.429
385.165
384.903
384.643
384.375
384.119
383.85
383.588
383.327
383.054
382.795
382.521
382.247
381.977
381.691
381.406
381.121
380.806
380.511
380.179
379.849
379.505
379.133
378.751
378.345
377.908
377.448
376.954
376.411
375.842
375.202
374.528
373.772
372.952
372.06
371.024
369.962
368.692
367.311
365.826
364.062
362.203
360.126
357.854
355.477
352.95
350.423
347.914
345.692
392.64
392.573
392.45
392.273
392.06
391.824
391.587
391.351
391.121
390.898
390.674
390.454
390.222
389.993
389.75
389.51
389.263
389.014
388.766
388.511
388.263
388.003
387.751
387.49
387.233
386.97
386.71
386.444
386.181
385.917
385.648
385.387
385.113
384.852
384.582
384.31
384.049
383.769
383.507
383.231
382.956
382.687
382.402
382.127
381.836
381.551
381.248
380.95
380.63
380.31
379.973
379.618
379.266
378.859
378.477
378.031
377.577
377.099
376.552
376.003
375.363
374.709
373.956
373.147
372.282
371.248
370.176
368.941
367.535
365.998
364.255
362.2
359.988
357.425
354.541
351.471
348.066
344.548
341.009
337.567
392.941
392.84
392.667
392.431
392.166
391.89
391.629
391.381
391.148
390.924
390.699
390.476
390.239
390.006
389.756
389.515
389.262
389.013
388.762
388.505
388.256
387.992
387.739
387.473
387.216
386.946
386.686
386.413
386.149
385.879
385.605
385.344
385.058
384.799
384.517
384.245
383.974
383.69
383.42
383.138
382.855
382.578
382.285
382
381.704
381.404
381.098
380.783
380.46
380.123
379.772
379.411
379.028
378.622
378.201
377.75
377.257
376.777
376.173
375.631
374.933
374.243
373.462
372.574
371.681
370.524
369.418
368.053
366.438
364.878
362.845
360.517
358.016
354.865
351.361
347.424
342.889
338.023
333
327.906
393.356
393.188
392.932
392.611
392.278
391.96
391.679
391.426
391.195
390.968
390.741
390.509
390.266
390.025
389.77
389.525
389.268
389.019
388.763
388.507
388.25
387.989
387.728
387.461
387.201
386.924
386.667
386.381
386.123
385.841
385.568
385.299
385.009
384.746
384.456
384.182
383.9
383.617
383.334
383.05
382.761
382.468
382.185
381.871
381.589
381.266
380.961
380.638
380.297
379.963
379.591
379.228
378.819
378.412
377.98
377.468
377.039
376.423
375.898
375.279
374.547
373.888
372.976
372.176
371.11
369.933
368.855
367.141
365.688
363.858
361.589
359.21
356.298
352.62
348.623
343.593
337.614
330.982
323.436
315.969
393.9
393.557
393.126
392.682
392.29
391.962
391.694
391.454
391.229
390.999
390.764
390.524
390.274
390.029
389.773
389.526
389.269
389.018
388.761
388.504
388.243
387.982
387.715
387.45
387.182
386.905
386.644
386.354
386.094
385.805
385.531
385.254
384.963
384.692
384.399
384.12
383.831
383.546
383.253
382.967
382.671
382.371
382.084
381.76
381.473
381.143
380.825
380.5
380.152
379.808
379.444
379.057
378.664
378.232
377.805
377.261
376.856
376.171
375.67
375.042
374.209
373.619
372.611
371.896
370.505
369.742
368.196
366.482
365.312
363.027
360.448
358.456
354.448
351.219
346.323
340.689
332.762
323.952
311.772
299.441
395.36
394.347
393.441
392.766
392.314
392.005
391.759
391.528
391.291
391.047
390.795
390.545
390.289
390.04
389.784
389.534
389.279
389.023
388.767
388.505
388.244
387.98
387.712
387.446
387.173
386.9
386.627
386.347
386.072
385.792
385.508
385.231
384.941
384.661
384.374
384.085
383.799
383.509
383.214
382.929
382.625
382.334
382.034
381.723
381.423
381.101
380.779
380.455
380.106
379.757
379.392
378.998
378.61
378.165
377.726
377.233
376.744
376.111
375.638
374.825
374.275
373.375
372.648
371.584
370.565
369.622
367.949
366.629
365.117
362.41
360.807
357.513
354.37
350.519
345.727
338.885
331.228
319.315
303.362
279.185
385.984
386.354
386.65
386.853
386.854
386.671
386.36
385.96
385.475
384.87
384.291
383.679
382.752
381.768
381.227
381.372
382.415
384.268
386.105
388.053
386.198
386.421
386.67
386.923
386.983
386.804
386.473
386.048
385.593
385.008
384.147
383.128
381.98
380.929
380.337
380.385
381.286
383.075
384.721
386.504
384.849
385.804
386.854
387.252
387.276
387.021
386.702
386.211
385.547
384.627
383.375
381.898
380.512
379.382
378.636
378.384
378.945
380.711
382.267
383.697
385.994
387.15
386.873
387.129
388.041
387.645
387.141
386.419
385.523
384.222
382.513
380.603
378.968
377.822
377.209
377.034
377.324
379.037
380.619
381.883
385.819
386.32
387.466
389.636
389.429
388.254
387.757
386.579
385.391
383.751
381.436
379.08
377.352
376.477
376.21
376.282
376.675
378.464
379.742
380.828
384.795
385.935
387.538
388.95
389.856
390.602
389.282
386.865
385.024
383.075
380.522
378.27
376.453
375.798
375.746
376.215
376.568
378.416
379.21
380.363
382.991
384.24
385.778
387.222
388.563
389.131
388.697
387.379
385.096
382.314
379.9
377.899
376.271
375.668
375.436
375.713
376.367
378.071
379.311
381.123
380.301
381.474
382.821
384.239
385.522
386.294
386.334
385.433
383.665
381.295
378.666
376.572
375.278
375.517
376.39
377.532
378.406
379.412
380.456
383.088
376.938
377.925
379.045
380.284
381.428
382.316
382.598
382.184
380.966
379.237
377.118
375.579
374.217
373.303
373.097
373.177
373.82
375.95
378.831
382.691
373.053
373.727
374.64
375.693
376.677
377.598
378.228
378.38
378.033
377.408
376.663
376.193
377.315
379.482
379.75
381.633
384.979
387.087
388.231
392.364
368.607
369.037
369.682
370.523
371.566
372.535
373.436
374.368
375.209
376.458
379.159
383.213
387.126
380.394
366.572
364.736
374.777
382.03
387.247
392.465
363.611
363.728
364.22
364.9
365.882
367.205
368.643
370.119
371.706
373.258
374.246
373.854
371.324
367.25
368.579
373.482
379.671
387.689
395.122
398.617
357.978
357.755
357.942
358.673
359.717
361.193
363.162
365.486
367.99
370.219
372.003
373.336
374.39
376.151
379.839
384.712
389.364
392.469
394.49
395.102
351.446
350.842
350.736
351.36
352.777
354.671
356.923
359.455
362.151
365.015
368.017
371.442
374.938
378.645
382.094
385.999
390.417
394.998
397.526
399.323
343.841
342.603
342.232
342.669
344.252
347.321
351.139
355.002
358.612
361.766
364.452
368.045
372.815
378.193
383.656
389.212
394.476
397.698
398.829
399.376
334.611
332.608
331.923
332.562
334.319
337.252
341.673
346.691
351.845
356.971
362.204
367.294
372.618
378.14
384.101
390.027
395.224
398.677
400.627
401.918
323.211
319.695
318.137
319.777
324.439
329.841
335.013
339.671
344.023
349.351
355.892
362.962
369.9
376.205
382.483
388.448
394.076
398.409
401.203
402.772
308.933
303.557
300.742
301.11
306.606
315.37
324.801
333.281
340.116
345.695
351.49
358.281
365.579
372.6
379.13
385.474
391.851
397.016
400.436
402.22
287.015
280.118
279.993
285.572
292.814
301.314
311.189
321.181
330.583
339.231
346.687
353.866
361.084
368.108
374.852
381.742
388.408
393.846
397.719
399.802
250.483
236.898
239.218
254.716
274.25
291.531
303.933
312.821
321.403
330.432
339.504
348.157
355.812
362.881
369.798
376.493
383.159
388.884
392.957
395.118
210.095
200.851
200.85
214.963
241.879
271.071
292.455
305.138
313.394
321.855
331.493
340.823
348.979
356.316
363.256
370.012
376.637
382.07
385.842
387.742
206.262
191.713
182.708
191.2
220.058
251.948
278.767
296.23
306.256
314.391
323.421
332.696
341
348.566
355.843
362.446
368.371
373.526
377.026
378.959
202.085
191.498
176.463
180.449
211.496
241.624
267.199
285.693
297.672
306.88
316.089
324.656
332.308
339.812
347.057
353.508
359.265
364.261
367.659
369.53
210.19
202.315
187.077
189.792
218.368
244.713
262.582
277.265
288.913
298.798
307.73
315.713
323.11
330.687
338.109
344.419
349.719
354.174
357.359
358.813
216.502
212.615
202.643
209.695
233.508
255.663
266.675
274.41
282.444
290.509
298.495
306.048
313.342
320.96
328.348
334.252
339.191
343.416
346.236
347.73
217.885
215.277
216.713
223.438
245.202
264.643
272.096
276.053
277.731
282.2
288.685
295.328
302.237
309.651
316.8
322.76
327.8
331.94
334.751
336.162
213.084
211.236
214.153
223.869
242.906
266.468
269.858
273.705
270.433
270.251
274.845
282.148
289.771
297.541
304.646
310.498
315.493
319.701
322.525
323.644
207.424
206.5
211.159
219.566
232.812
253.98
261.587
259.478
257.349
254.107
256.737
265.389
275.338
284.654
292.104
297.904
303.005
307.11
309.723
310.841
201.886
201.645
204.124
212.991
222.346
231.717
236.334
232.638
231.816
232.334
235.417
245.819
258.6
269.972
278.376
284.647
289.831
293.942
296.605
297.797
196.198
196.842
198.882
202.953
206.627
206.766
200.342
195.649
197.804
202.762
208.672
222.395
239.061
253.007
262.604
269.889
276.011
280.675
283.447
284.328
189.993
190.762
191.258
191.142
188.187
178.621
161.886
156.212
161.432
169.224
178.616
197.306
218.216
234.779
246.059
254.777
261.939
267.047
269.983
271.181
183.263
183.094
182.158
178.247
170.272
152.483
129.762
121.892
126.405
135.296
148.968
173.141
198.088
217.056
229.943
239.96
247.914
253.536
256.953
258.492
176.62
175.419
172.154
165.126
154.245
132.471
108.82
97.9937
99.083
106.594
122.977
151.445
179.424
200.39
215.132
226.421
235.041
241.035
244.693
246.273
171.274
168.034
163.634
155.229
142.91
121.074
98.3456
83.813
81.0421
87.4234
105.569
135.181
163.729
185.822
202.126
214.159
223.195
229.557
233.296
235.252
168.888
165.314
159.818
150.291
138.257
118.447
96.564
78.6149
73.533
79.7994
97.871
125.941
153.411
175.362
191.743
203.656
212.903
219.748
223.558
225.669
168.712
164.237
159.247
150.121
139.612
123.686
103.221
83.1075
77.0865
81.5523
98.1359
124.454
149.768
170.268
185.27
196.025
205.099
211.532
215.479
217.627
171.196
166.813
161.934
155.049
146.397
134.247
115.877
96.2714
90.7623
93.8835
107.805
129.72
151.406
168.819
181.943
191.727
199.457
205.238
209.056
211.069
173.926
172.694
165.929
161.352
155.06
146.645
129.823
116.168
111.07
113.593
124.515
141.381
157.773
171.023
181.434
189.426
195.866
200.673
203.932
205.664
176.152
177.779
171.152
166.637
163.237
158.949
147.527
138.674
134.734
136.035
144.229
156.347
166.851
175.771
183.01
188.704
193.622
197.387
199.891
201.409
179.635
177.978
175.623
172.307
170.671
170.105
166.17
161.308
157.679
158.058
163.832
170.497
176.037
181.423
185.619
189.282
192.655
195.236
197.097
198.11
187.615
183.083
179.279
177.838
178.318
180.585
181.177
180.985
177.903
177.782
180.193
181.71
184.011
186.511
188.378
190.525
192.545
193.814
194.616
195.262
190.506
187.294
183.633
183.492
186.016
190.293
193.852
196.044
193.956
193.146
191.532
189.884
189.906
190.095
190.538
191.444
192.117
192.54
192.969
193.358
189.938
187.028
186.244
188.045
192.271
197.526
203.086
206.184
204.742
202.34
198.333
195.579
193.593
192.284
191.844
191.901
191.922
191.787
191.66
191.552
188.64
187.881
188.366
191.242
196.098
201.2
208.558
210.948
210.092
206.066
201.528
198.282
195.193
193.349
192.454
191.9
191.403
190.872
190.36
190.614
186.465
186.465
188.555
192.403
197.679
203.091
209.614
210.336
210.271
205.793
201.719
198.317
195.129
193.286
192.258
191.54
190.949
190.673
190.571
190.334
182.678
183.504
186.249
190.346
195.546
200.894
205.475
206.395
206.522
202.157
198.989
195.914
193.45
192.096
191.517
191.305
191.123
190.626
189.945
190.207
177.147
178.09
181.012
184.799
189.323
193.944
197.345
198.839
198.93
195.935
193.721
191.837
190.482
190.084
190.311
190.423
190.327
190.506
190.958
191.35
169.454
170.365
172.714
175.541
178.831
182.353
184.979
187.471
188.004
187.095
186.81
186.445
186.383
187.063
188.241
189.486
190.569
191.511
191.84
191.832
160.007
160.309
161.389
162.671
164.353
166.556
168.931
172.194
174.007
176.298
178.309
179.87
181.857
184.194
186.447
188.431
190.036
191.33
192.323
193.69
148.936
148.49
148.004
147.226
146.935
147.806
150.391
154.336
158.217
163.844
168.494
172.75
177
180.878
184.225
187.16
190.065
192.99
195.347
195.569
137.365
135.868
133.471
130.462
128.21
128.043
131.039
135.834
142.219
150.411
157.787
165.117
171.889
177.646
182.568
187.252
191.348
194.178
196.043
197.901
125.833
123.456
119.385
114.22
110.241
109.402
112.576
118.412
127.123
137.145
147.256
157.856
167.078
174.684
181.204
186.703
191.767
196.371
200.411
201.878
115.721
112.622
107.242
100.25
95.0215
93.7517
97.0197
103.837
114.193
125.44
138.175
151.246
162.504
171.844
180.167
187.825
194.496
199.939
203.495
205.292
108.607
104.732
98.2672
90.0094
83.9631
82.3451
85.3822
93.0775
104.246
116.267
131.12
146
158.973
170.348
180.38
188.855
196.283
202.903
208.302
211.56
104.91
100.544
93.2437
84.1897
77.8398
75.8754
78.0635
86.3255
97.8271
110.649
126.75
142.767
157.249
169.864
180.746
190.712
200.108
208.831
215.411
217.462
104.662
100.33
92.8283
83.1495
76.8344
74.4006
76.3443
83.9212
95.1063
108.656
125.257
141.794
157.015
170.604
182.697
193.702
203.917
212.754
220.455
226.022
108.721
104.527
97.0735
87.375
80.8852
78.1554
79.7429
86.5501
96.8699
110.281
126.697
143.193
158.897
172.88
184.985
196.189
207.534
219.449
230.534
235.41
117.017
113.093
105.762
96.5305
89.9613
86.7865
87.5052
93.4146
102.61
115.222
130.796
146.671
161.766
175.519
188.127
200.197
212.35
224.426
235.172
243.817
128.772
125.186
118.082
109.279
102.986
99.2271
99.0951
103.606
111.282
122.551
136.645
151.439
166.094
179.493
191.467
202.865
214.015
226.75
243.515
253.881
143.115
139.85
133.208
124.73
118.383
114.251
113.667
116.758
122.735
132.279
144.515
157.712
170.664
182.538
193.868
205.214
217.048
229.071
241.239
250.11
159.248
156.19
150.125
142.228
135.771
131.239
129.682
131.471
135.836
143.486
153.414
164.276
175.058
185.268
195.478
206.193
216.708
223.129
221.943
236.212
176.902
173.969
168.334
161.024
154.725
150.006
147.444
147.698
150.213
155.81
163.472
171.648
179.391
186.921
194.901
203.266
212.988
222.955
222.491
222.136
195.842
193.019
187.633
180.797
174.813
169.627
166.391
165.229
165.665
168.66
173.454
178.455
183.01
187.647
192.694
198.647
207.297
220.437
238.052
215.735
214.965
212.446
207.266
200.631
194.701
189.164
185.133
182.777
181.455
181.808
183.754
185.531
186.662
187.968
189.681
192.739
198.214
206.04
227.229
216.526
232.722
230.938
226.663
220.556
214.4
208.602
203.58
199.754
196.791
194.844
193.657
191.79
189.462
187.475
185.814
185.804
188.838
193.182
197.661
201.27
248.965
247.574
244.001
238.791
232.912
227.047
221.477
216.407
211.636
207.003
202.808
198.161
193.217
187.781
181.81
177.583
176.727
178.774
176.497
187.458
264.073
262.962
259.728
254.807
249.534
243.749
237.807
231.793
225.428
218.686
212.023
204.704
196.709
188.04
177.963
166.915
158.507
162.405
163.032
172.948
277.272
276.562
274
269.663
264.38
258.736
252.517
245.648
238.044
229.626
220.546
211.011
200.999
188.769
173.53
156.826
142.852
147.938
153.779
160.498
288.803
288.204
285.755
281.635
276.672
271.217
264.928
257.544
248.884
239.252
228.772
217.285
204.514
189.526
171.865
152.181
135.461
136.535
147.151
152.515
298.863
298.67
296.651
292.573
287.401
281.617
275.06
267.287
258.038
247.504
235.736
222.85
208.931
192.758
173.826
153.689
135.332
132.842
145.212
150.762
307.143
307.201
305.589
301.856
296.654
290.507
283.626
275.569
266.107
255.01
242.717
229.757
215.107
198.305
178.971
158.772
142.327
138.261
150.66
155.907
313.922
314.132
312.738
309.417
304.449
298.255
291.157
282.918
273.416
262.534
250.003
236.811
222.617
206.62
188.347
169.129
156.865
153.342
161.385
166.37
319.531
320.047
318.916
315.977
311.226
305.042
297.898
289.576
280.055
269.375
257.358
244.613
231.408
216.337
200.376
183.195
173.235
170.544
175.88
180.595
323.977
324.604
323.75
321.27
316.951
310.985
303.836
295.62
286.286
275.95
264.624
251.907
239.623
226.626
212.629
197.975
191.878
190.78
193.215
196.399
327.523
328.23
327.514
325.356
321.514
316.01
309.201
301.194
292.152
281.865
271.139
259.47
247.629
235.903
226.147
214.901
207.399
206.596
208.741
211.305
330.271
330.914
330.484
328.489
324.962
319.965
313.57
305.811
297.108
287.377
276.853
265.908
255.39
245.447
237.139
229.225
224.307
223.667
224.247
225.577
332.322
332.803
332.659
330.654
327.479
322.856
316.845
309.648
301.303
291.887
281.889
271.74
261.814
252.903
245.807
242.002
236.751
236.045
236.283
236.205
333.819
334.203
334.165
332.131
329.038
324.746
319.211
312.413
304.412
295.589
285.936
275.896
266.909
259.579
252.887
248.619
245.434
245.545
244.842
243.933
334.896
335.142
335.146
333.078
330.08
325.994
320.622
314.334
306.888
297.855
288.912
279.799
270.934
263.435
257.933
255.434
253.947
252.521
250.535
248.559
335.662
335.807
335.675
333.739
330.773
326.645
321.569
315.424
308.18
300.067
291.243
282.237
273.805
266.803
261.753
257.722
256.455
254.745
251.76
249.692
336.189
336.219
335.926
334.221
331.208
327.061
322.04
316.224
309.235
301.356
293.012
284.349
275.935
268.316
262.994
259.46
256.735
255.483
247.717
246.704
336.667
336.548
336.157
334.86
331.838
327.692
322.652
316.724
310.15
302.544
294.199
285.487
277.029
269.431
262.661
257.527
253.261
247.096
242.104
240.829
337.131
336.826
336.593
335.589
332.546
328.255
323.32
317.59
310.887
303.455
295.198
286.504
277.497
268.898
261.333
254.499
247.794
241.517
237.254
234.449
337.488
337.099
337.228
336.248
333.154
329.182
324.144
318.293
311.917
304.456
296.196
287.197
277.921
268.652
259.469
251.53
244.107
235.064
225.626
226.551
337.455
337.144
337.608
336.895
334.31
330.176
325.339
319.557
312.971
305.869
297.611
288.432
278.236
268.142
257.836
246.878
234.558
222.731
216.235
217.075
337.333
337.367
337.568
336.904
334.817
331.461
326.677
321.084
314.793
307.493
299.261
289.95
279.572
267.765
255.266
242.783
229.876
216.369
212.728
213.575
337.551
338.315
337.326
336.689
335.715
332.516
328.152
322.922
316.759
309.803
301.732
292.032
280.855
268.806
255.03
240.607
227.137
214.144
205.488
204.777
337.739
338.36
337.072
337.13
336.131
333.587
329.904
325.047
319.399
312.645
304.439
295.309
284.004
270.806
256.505
240.112
222.191
203.399
190.022
180.858
337.708
337.724
337.05
336.567
336.205
334.915
331.82
327.86
322.386
315.973
308.439
298.865
287.912
274.456
258.275
239.708
217.271
191.613
166.854
167.306
337.717
337.532
337.137
336.671
336.838
335.984
334.319
330.772
326.149
319.98
312.438
303.79
292.158
278.247
260.756
239.494
213.713
184.664
152.4
113.962
337.878
337.621
337.266
337.363
337.279
337.68
336.598
334.483
330.431
324.798
317.715
308.599
297.511
282.868
264.598
243.251
213.763
176.144
132.412
44.7418
338.217
337.841
337.543
337.985
337.987
338.839
339.461
338.141
335.086
330.332
323.255
314.413
303.36
289.575
270.019
247.607
220.001
173.135
118.544
30.7216
338.773
338.276
337.992
338.247
339.057
340.224
341.391
342.124
340.407
336.176
330.006
321.647
309.679
296.661
279.132
253.76
228.262
182.29
125.702
67.0623
339.735
339.144
339.013
339.368
340.276
341.681
343.818
345.445
345.305
342.267
336.573
328.352
318.396
302.83
288.809
264.031
237.102
202.315
154.478
112.993
341.268
340.603
340.445
341.027
342.11
343.458
346.315
347.826
353.266
345.981
345.763
335.475
325.87
310.698
298.021
277.743
248.663
222.43
186.309
150.031
343.254
342.583
342.349
342.923
343.631
345.554
349.002
349.532
356.666
347.901
352.716
343.657
332.028
320.149
309.185
292.533
264.902
239.785
210.339
176.69
345.369
344.467
344.331
345
345.587
347.488
349.495
351.212
356.351
347.702
359.39
351.482
335.658
331.375
317.158
301.823
280.702
254.744
226.936
196.151
348.114
347.107
346.609
347.801
347.293
349.368
352.11
353.81
352.87
350.725
355.988
345.651
339.654
342.746
324.877
308.028
290.374
265.656
237.281
207.402
349.912
348.953
347.603
348.621
347.606
347.788
348.957
353.286
339.808
354.184
351.63
343.682
345.626
347.731
333.428
315.068
296.217
271.635
243.133
212.051
351.546
349.902
349.143
349.916
351.184
352.756
349.4
359.571
359.423
366.399
361.228
355.132
348.431
352.295
340.778
321.091
297.415
273.866
246.222
213.896
-74.2607
-105.824
-129.01
-106.753
-97.3294
-80.4909
-87.628
-95.118
-100.901
-95.8685
-87.2146
-72.1407
-60.4555
-57.1619
-63.9843
-80.546
-105.288
-137.207
-170.11
-199.073
-220.709
-233.469
-236.571
-230.115
-215.831
-195.827
-168.345
-133.511
-98.9399
-65.9561
-29.5192
2.3693
29.8074
52.8829
68.5584
80.7534
88.0832
91.4682
93.4572
93.1187
91.1397
89.382
87.7482
87.2508
87.6575
87.4915
86.8262
82.608
72.8771
56.5118
33.7166
4.21193
-27.555
-58.9755
-87.3451
-108.465
-118.87
-117.418
-107.559
-88.0748
-63.4502
-35.6926
-9.47083
14.6041
33.9073
47.1554
54.7761
58.2478
57.9873
54.2723
50.8677
46.3168
43.2105
44.341
45.685
51.5896
59.2518
62.4071
45.4543
11.3749
-85.5575
-168.967
-133.731