/*--------------------------------*- C++ -*----------------------------------*\
| =========                 |                                                 |
| \\      /  F ield         | OpenFOAM: The Open Source CFD Toolbox           |
|  \\    /   O peration     | Version:  2306                                  |
|   \\  /    A nd           | Website:  www.openfoam.com                      |
|    \\/     M anipulation  |                                                 |
\*---------------------------------------------------------------------------*/
FoamFile
{
    version     2.0;
    format      ascii;
    arch        "LSB;label=32;scalar=64";
    class       surfaceScalarField;
    location    "0.325";
    object      phi;
}
// * * * * * * * * * * * * * * * * * * * * * * * * * * * * * * * * * * * * * //

dimensions      [0 3 -1 0 0 0 0];

oriented        oriented;

internalField   nonuniform List<scalar> 
8520
(
0.00992782
7.21794e-05
0.00978964
0.000138181
0.00962951
0.000160125
0.00946828
0.00016123
0.00930947
0.000158816
0.00914916
0.000160311
0.0089864
0.000162757
0.00882095
0.000165452
0.00865373
0.000167218
0.00848561
0.000168124
0.00831791
0.000167697
0.00815106
0.000166848
0.00798557
0.000165495
0.00782133
0.000164236
0.0076585
0.000162826
0.00749711
0.000161393
0.00733717
0.00015994
0.00717887
0.000158299
0.00702219
0.000156684
0.00686735
0.00015484
0.00671434
0.000153012
0.00656327
0.000151068
0.00641424
0.000149034
0.00626722
0.000147015
0.0061224
0.00014482
0.00597964
0.000142762
0.00583918
0.000140456
0.0057008
0.000138385
0.0055648
0.000136002
0.00543083
0.000133964
0.0052993
0.000131532
0.00516974
0.000129557
0.00504247
0.000127274
0.00491703
0.00012544
0.00479365
0.000123384
0.00467185
0.000121797
0.00455178
0.000120064
0.00443289
0.00011889
0.00431525
0.000117641
0.00419821
0.000117046
0.00408177
0.000116442
0.00396518
0.000116585
0.0038484
0.000116777
0.00373056
0.000117845
0.00361142
0.000119136
0.00349011
0.000121313
0.00336606
0.000124045
0.00323847
0.000127596
0.00310648
0.000131993
0.00296916
0.000137319
0.00282564
0.000143521
0.00267462
0.000151018
0.00251545
0.000159167
0.00234637
0.000169083
0.00216713
0.000179235
0.00197555
0.000191586
0.001772
0.000203548
0.00155414
0.000217857
0.00132322
0.000230925
0.00107731
0.000245912
0.000819143
0.000258163
0.000548263
0.00027088
0.0002724
0.000275863
1.81783e-06
0.000270582
-0.000244468
0.000246286
-0.0004572
0.000212732
-0.000610639
0.000153439
-0.000689914
7.92754e-05
-0.000672318
-1.75964e-05
-0.000553149
-0.000119169
-0.00032301
-0.000230139
-3.72914e-05
-0.000285719
0.000206379
-0.00024367
0.000314602
-0.000108224
6.24527e-06
0.000308357
-0.000525784
0.00053203
-0.000443299
-8.24855e-05
-0.000102418
-0.000340881
-5.02182e-05
-5.21995e-05
0.000121006
-0.000171224
0.0100357
3.64829e-05
0.0100799
9.40008e-05
0.0101108
0.000129195
0.0101273
0.00014476
0.0101357
0.000150347
0.0101431
0.000152925
0.0101493
0.000156558
0.0101532
0.000161569
0.0101536
0.000166787
0.0101502
0.000171566
0.010143
0.000174892
0.0101323
0.000177516
0.0101188
0.000178998
0.0101027
0.000180335
0.0100843
0.000181228
0.0100637
0.000181991
0.0100408
0.000182855
0.010016
0.000183154
0.00998873
0.00018392
0.0099598
0.00018377
0.00992852
0.000184294
0.0098957
0.000183883
0.0098607
0.000184043
0.0098242
0.000183507
0.00978573
0.000183293
0.00974571
0.000182778
0.00970397
0.0001822
0.00966054
0.000181815
0.00961567
0.000180873
0.00956893
0.000180705
0.0095209
0.000179556
0.00947088
0.000179578
0.00941962
0.000178539
0.00936629
0.000178767
0.0093116
0.00017807
0.00925475
0.000178649
0.00919634
0.000178477
0.00913562
0.000179608
0.00907299
0.000180274
0.00900781
0.00018222
0.00894013
0.00018413
0.00886957
0.000187139
0.00879595
0.000190404
0.00871887
0.000194915
0.0086379
0.000200109
0.00855283
0.00020638
0.00846264
0.000214239
0.00836759
0.000222643
0.00826589
0.000233693
0.00815823
0.000244987
0.00804218
0.000259566
0.00791861
0.000274585
0.00778464
0.000293136
0.00764125
0.000312477
0.00748509
0.000335392
0.00731721
0.000359466
0.00713402
0.000386743
0.00693662
0.000415258
0.00672126
0.000446276
0.00648993
0.000477246
0.0062385
0.000509589
0.00597124
0.000538147
0.00568223
0.000564868
0.00537312
0.000579697
0.00504162
0.000577786
0.00468459
0.000569758
0.00428315
0.000554884
0.00383342
0.000529005
0.00330873
0.00050709
0.00269144
0.000498123
0.00192912
0.000532179
0.00105536
0.000588047
0.000197302
0.000614383
-0.000394221
0.0004833
-0.000547624
0.00046176
-0.000381886
0.000366292
-0.000434861
-2.95111e-05
-0.000590124
-0.000185619
-0.000555369
-8.69536e-05
2.63057e-05
-0.000460669
0.0100141
2.23365e-05
0.0100441
6.40421e-05
0.0100777
9.55618e-05
0.0101074
0.000115084
0.0101313
0.000126476
0.0101522
0.000131962
0.010173
0.000135829
0.010195
0.000139551
0.0102179
0.00014388
0.0102407
0.000148735
0.0102631
0.00015251
0.0102841
0.000156488
0.0103045
0.000158647
0.0103235
0.000161293
0.0103423
0.000162462
0.01036
0.000164251
0.0103775
0.00016538
0.0103941
0.000166575
0.0104101
0.000167902
0.0104253
0.000168571
0.0104396
0.000169994
0.0104532
0.000170296
0.0104656
0.00017162
0.0104774
0.0001717
0.0104878
0.000172898
0.0104977
0.000172925
0.0105059
0.000173958
0.0105136
0.000174141
0.0105196
0.000174899
0.0105248
0.000175485
0.0105283
0.000176006
0.0105308
0.000177086
0.0105318
0.000177608
0.0105313
0.000179256
0.0105294
0.000179981
0.0105256
0.000182436
0.0105205
0.000183526
0.0105131
0.000187063
0.0105044
0.000188915
0.010493
0.000193692
0.0104803
0.000196788
0.0104644
0.000203018
0.010447
0.000207846
0.0104261
0.000215763
0.010403
0.000223243
0.0103765
0.000232825
0.0103466
0.00024419
0.0103136
0.00025566
0.0102757
0.000271608
0.0102345
0.000286123
0.0101875
0.000306632
0.0101362
0.000325883
0.0100784
0.000350881
0.0100146
0.000376303
0.0099441
0.000405881
0.00986507
0.000438505
0.00977928
0.000472534
0.00968193
0.0005126
0.00957795
0.000550255
0.00945875
0.000596452
0.00933307
0.000635271
0.00918746
0.000683757
0.00903365
0.000718679
0.00885223
0.000761108
0.00864518
0.00078484
0.00839801
0.000816933
0.00811275
0.000840145
0.00777405
0.000867704
0.00738153
0.000899604
0.00693695
0.000942708
0.00645486
0.00101427
0.00595706
0.00108585
0.00540181
0.00116963
0.00467914
0.00120597
0.00393454
0.00120636
0.00311288
0.00118796
0.00202266
0.0010607
0.000804248
0.0010328
-4.26717e-05
0.000759967
0.000344134
-0.0003605
0.010007
1.5348e-05
0.0100268
4.42512e-05
0.0100519
7.04464e-05
0.010077
8.9985e-05
0.0101003
0.000103178
0.0101223
0.000109975
0.0101431
0.000115013
0.0101642
0.000118439
0.0101863
0.000121756
0.0102094
0.00012562
0.0102332
0.000128768
0.0102568
0.000132844
0.0102805
0.000134931
0.0103037
0.000138167
0.0103271
0.000139081
0.0103498
0.000141476
0.0103731
0.000142094
0.0103959
0.000143822
0.0104191
0.000144719
0.0104418
0.000145848
0.0104646
0.000147173
0.0104871
0.000147783
0.0105094
0.000149376
0.0105315
0.000149577
0.0105529
0.00015145
0.0105745
0.000151314
0.010595
0.000153531
0.0106159
0.000153183
0.0106351
0.000155678
0.0106552
0.000155477
0.0106731
0.000158045
0.0106918
0.00015845
0.0107084
0.000160931
0.0107253
0.000162388
0.0107406
0.000164703
0.0107554
0.000167625
0.010769
0.000169899
0.0107815
0.000174565
0.0107932
0.000177191
0.0108031
0.000183819
0.0108128
0.000187057
0.0108196
0.000196219
0.0108272
0.000200276
0.0108305
0.000212462
0.0108355
0.000218289
0.0108352
0.000233065
0.0108367
0.000242703
0.0108331
0.000259255
0.0108301
0.000274582
0.0108232
0.000293017
0.0108149
0.000314938
0.0108045
0.000336344
0.0107903
0.000365082
0.0107754
0.000391127
0.0107552
0.000426167
0.0107347
0.000458982
0.010708
0.000499177
0.0106807
0.000539956
0.0106462
0.000584705
0.0106105
0.000632159
0.010565
0.000680811
0.0105163
0.000732415
0.0104528
0.000782254
0.0103776
0.000836241
0.0102769
0.000885548
0.0101528
0.000941092
0.00999939
0.000993518
0.00981303
0.00105406
0.0095911
0.00112153
0.00933565
0.00119816
0.00905724
0.00129268
0.00874661
0.00139648
0.00839645
0.00151979
0.00796332
0.0016391
0.00746131
0.00170837
0.00687686
0.00177241
0.00620716
0.0017304
0.00553246
0.00170749
0.00462386
0.00166857
0.00150933
0.00345867
0.0100044
1.09375e-05
0.0100166
3.20478e-05
0.010035
5.20213e-05
0.0100564
6.86461e-05
0.010078
8.15523e-05
0.0100991
8.89209e-05
0.0101192
9.48857e-05
0.0101398
9.77842e-05
0.0101605
0.000101056
0.0101827
0.000103441
0.0102049
0.000106552
0.0102283
0.000109488
0.0102513
0.000111942
0.0102749
0.000114555
0.010298
0.000115986
0.0103214
0.000118034
0.0103447
0.000118857
0.0103681
0.000120406
0.0103916
0.000121228
0.010415
0.000122414
0.0104386
0.000123574
0.010462
0.000124416
0.0104855
0.000125855
0.0105086
0.000126442
0.0105319
0.000128187
0.0105547
0.000128538
0.0105775
0.000130705
0.0105999
0.000130822
0.010622
0.000133544
0.0106439
0.000133582
0.0106651
0.000136856
0.0106864
0.00013714
0.0107064
0.000140866
0.0107269
0.000141915
0.0107459
0.000145767
0.0107651
0.000148414
0.010783
0.00015199
0.0108005
0.000157023
0.0108174
0.000160325
0.0108331
0.000168078
0.0108487
0.000171452
0.0108625
0.000182457
0.0108769
0.00018589
0.0108882
0.000201155
0.0109015
0.00020494
0.0109102
0.000224408
0.0109221
0.000230769
0.0109287
0.000252653
0.0109384
0.0002649
0.0109438
0.000287674
0.0109505
0.000308157
0.0109554
0.000331516
0.0109586
0.000361838
0.0109639
0.000385789
0.0109631
0.000427024
0.0109695
0.000452602
0.010965
0.000503684
0.0109713
0.000533603
0.0109642
0.000591865
0.010968
0.000628262
0.010957
0.000691879
0.010954
0.000735386
0.0109333
0.000803009
0.010914
0.000855495
0.010875
0.000924516
0.0108265
0.000989603
0.0107604
0.00105967
0.0106699
0.00114456
0.0105688
0.00122263
0.0104319
0.00133507
0.0102927
0.00143178
0.0101094
0.00157987
0.00992716
0.00170199
0.00970061
0.00186565
0.00943311
0.00197587
0.00910329
0.00210222
0.0086686
0.0021651
0.00812864
0.00224745
0.00747385
0.00232336
0.00229584
0.00668734
0.0100031
7.87644e-06
0.0100118
2.33012e-05
0.0100256
3.82612e-05
0.0100431
5.10647e-05
0.0100624
6.22734e-05
0.0100825
6.88615e-05
0.0101023
7.50788e-05
0.0101225
7.75328e-05
0.0101426
8.10122e-05
0.0101638
8.22362e-05
0.0101852
8.51212e-05
0.0102078
8.68878e-05
0.0102303
8.94861e-05
0.0102535
9.13344e-05
0.0102764
9.30712e-05
0.0102997
9.48006e-05
0.0103229
9.56157e-05
0.010346
9.73124e-05
0.0103697
9.75623e-05
0.0103926
9.95029e-05
0.0104166
9.95245e-05
0.0104393
0.000101748
0.0104635
0.000101599
0.0104859
0.000104119
0.0105101
0.00010396
0.010532
0.000106575
0.010556
0.000106786
0.0105776
0.000109148
0.0106009
0.00011027
0.0106224
0.000112124
0.0106447
0.000114553
0.0106659
0.000115888
0.010687
0.000119813
0.010708
0.000120913
0.0107276
0.000126146
0.0107482
0.000127848
0.0107664
0.000133779
0.0107862
0.000137231
0.0108031
0.00014342
0.0108219
0.000149231
0.0108373
0.000156052
0.0108553
0.000164479
0.0108691
0.000172096
0.0108858
0.000184408
0.0108987
0.000192043
0.0109133
0.000209842
0.0109262
0.000217926
0.0109383
0.000240521
0.010951
0.000252167
0.0109614
0.000277336
0.0109738
0.000295692
0.0109828
0.000322519
0.0109953
0.0003493
0.0110035
0.000377659
0.0110162
0.000414343
0.0110244
0.000444397
0.0110371
0.000490915
0.0110455
0.000525206
0.0110587
0.000578731
0.0110657
0.000621254
0.0110782
0.000679392
0.0110808
0.000732786
0.0110888
0.000794996
0.0110832
0.000861022
0.0110809
0.000926904
0.0110615
0.001009
0.0110406
0.0010805
0.0110008
0.0011844
0.0109556
0.00126782
0.010892
0.00139866
0.01082
0.00150383
0.0107354
0.00166444
0.0106414
0.00179596
0.0105322
0.0019749
0.0103888
0.00211927
0.0101968
0.00229425
0.0099291
0.00243277
0.00959066
0.00258589
0.00921196
0.00270206
0.00279742
0.00871038
0.0100025
5.40892e-06
0.0100092
1.65627e-05
0.0100205
2.69773e-05
0.010035
3.65323e-05
0.0100525
4.48417e-05
0.0100708
5.05206e-05
0.0100903
5.55308e-05
0.0101099
5.80055e-05
0.0101301
6.07832e-05
0.0101505
6.18847e-05
0.0101717
6.38714e-05
0.0101934
6.52198e-05
0.0102157
6.71706e-05
0.0102383
6.87639e-05
0.0102611
7.02037e-05
0.0102841
7.18042e-05
0.0103073
7.24609e-05
0.0103304
7.41873e-05
0.0103538
7.41675e-05
0.0103769
7.63971e-05
0.0104005
7.58949e-05
0.0104235
7.87283e-05
0.0104473
7.78744e-05
0.0104701
8.12602e-05
0.0104937
8.03478e-05
0.0105164
8.39352e-05
0.0105397
8.34473e-05
0.0105621
8.68096e-05
0.010585
8.73668e-05
0.010607
9.01299e-05
0.0106291
9.23679e-05
0.0106509
9.41181e-05
0.0106719
9.88118e-05
0.0106937
9.90974e-05
0.0107131
0.000106809
0.010735
0.000105873
0.0107526
0.000116228
0.0107744
0.00011539
0.0107905
0.00012735
0.0108117
0.000128017
0.0108266
0.000141208
0.010847
0.000144077
0.0108606
0.00015848
0.01088
0.000164944
0.0108929
0.000179154
0.0109106
0.000192175
0.0109241
0.000204403
0.0109389
0.000225723
0.0109541
0.000236996
0.0109659
0.000265529
0.0109831
0.000278451
0.0109921
0.000313601
0.0110122
0.000329131
0.0110184
0.000371528
0.0110415
0.000391238
0.0110466
0.000439234
0.0110706
0.000466899
0.0110775
0.000518309
0.0110998
0.000556469
0.0111098
0.0006113
0.0111274
0.00066173
0.0111404
0.000719779
0.0111502
0.000785193
0.0111648
0.000846436
0.0111625
0.000929183
0.0111749
0.000996672
0.0111557
0.00109968
0.0111611
0.001179
0.0111235
0.00130542
0.0111159
0.00140625
0.011064
0.00155575
0.0110403
0.00168807
0.0109779
0.00185842
0.0109299
0.00202284
0.0108372
0.00221203
0.0107338
0.00239757
0.0105777
0.00258891
0.0103814
0.00278222
0.0101321
0.00295137
0.0031517
0.00977779
0.0100023
3.12114e-06
0.0100077
1.1157e-05
0.0100178
1.68981e-05
0.0100301
2.41762e-05
0.0100463
2.86444e-05
0.010063
3.38246e-05
0.0100823
3.62626e-05
0.010101
3.92725e-05
0.0101215
4.02913e-05
0.0101413
4.20542e-05
0.0101626
4.2644e-05
0.0101836
4.41913e-05
0.0102057
4.50494e-05
0.0102279
4.65724e-05
0.0102506
4.75634e-05
0.0102736
4.87792e-05
0.0102964
4.96681e-05
0.01032
5.05978e-05
0.0103427
5.14663e-05
0.0103666
5.24785e-05
0.0103892
5.32361e-05
0.0104133
5.46978e-05
0.010436
5.51787e-05
0.0104598
5.73806e-05
0.0104826
5.76003e-05
0.0105061
6.03871e-05
0.0105289
6.07291e-05
0.010552
6.37083e-05
0.0105745
6.48006e-05
0.0105971
6.76056e-05
0.0106194
7.00613e-05
0.0106412
7.22732e-05
0.0106631
7.69611e-05
0.0106843
7.78404e-05
0.0107053
8.57718e-05
0.0107262
8.50658e-05
0.0107462
9.62043e-05
0.0107664
9.51554e-05
0.0107856
0.000108185
0.010805
0.000108624
0.0108233
0.000122832
0.010842
0.000125451
0.0108594
0.000141074
0.0108774
0.000146971
0.0108941
0.000162367
0.0109107
0.00017558
0.0109284
0.000186776
0.0109423
0.000211771
0.0109621
0.000217206
0.0109734
0.000254271
0.0109951
0.00025671
0.0110051
0.000303626
0.011028
0.000306189
0.011038
0.000361547
0.0110618
0.000367407
0.0110731
0.000427996
0.0110965
0.000443483
0.011111
0.000503832
0.0111319
0.000535524
0.0111505
0.000592677
0.0111678
0.000644498
0.0111899
0.000697653
0.0112022
0.000772916
0.0112255
0.000823068
0.0112317
0.000923043
0.0112509
0.000977441
0.0112515
0.00109903
0.0112599
0.00117061
0.0112552
0.00131015
0.0112505
0.00141097
0.0112367
0.00156954
0.0112215
0.00170327
0.0111919
0.00188801
0.0111618
0.00205294
0.0111051
0.00226875
0.0110447
0.00245799
0.0109366
0.00269699
0.0108238
0.00289502
0.0106225
0.00315263
0.00336351
0.0104107
0.0100022
9.20228e-07
0.0100069
6.41061e-06
0.0100163
7.59446e-06
0.0100275
1.29688e-05
0.0100427
1.34503e-05
0.0100585
1.79399e-05
0.0100772
1.76009e-05
0.0100957
2.0778e-05
0.0101159
2.0042e-05
0.0101358
2.21526e-05
0.0101568
2.17164e-05
0.0101778
2.31598e-05
0.0101995
2.33904e-05
0.0102217
2.4357e-05
0.0102439
2.53043e-05
0.0102671
2.55983e-05
0.0102896
2.71473e-05
0.0103134
2.67918e-05
0.010336
2.89481e-05
0.0103601
2.8365e-05
0.0103826
3.06876e-05
0.0104068
3.05257e-05
0.0104295
3.25131e-05
0.0104535
3.33482e-05
0.0104762
3.48475e-05
0.0105001
3.6579e-05
0.0105228
3.80322e-05
0.0105462
4.02171e-05
0.0105688
4.22416e-05
0.0105918
4.46505e-05
0.0106142
4.76093e-05
0.0106364
5.00955e-05
0.0106587
5.46436e-05
0.0106801
5.64656e-05
0.010702
6.38594e-05
0.0107228
6.43047e-05
0.010744
7.49616e-05
0.0107641
7.50447e-05
0.0107849
8.73951e-05
0.0108039
8.96346e-05
0.0108247
0.000102062
0.0108424
0.000107727
0.0108629
0.000120564
0.0108801
0.00012976
0.0108997
0.000142791
0.010917
0.000158304
0.0109359
0.000167867
0.0109529
0.000194759
0.0109719
0.000198192
0.010989
0.000237196
0.0110077
0.000238003
0.0110264
0.000284903
0.0110441
0.000288521
0.0110652
0.000340394
0.0110827
0.000349899
0.0111055
0.000405179
0.0111243
0.000424717
0.0111478
0.000480307
0.0111689
0.000514495
0.0111917
0.00056981
0.0112165
0.000619757
0.0112363
0.000677825
0.0112655
0.000743728
0.0112802
0.00080837
0.0113115
0.000891752
0.0113216
0.000967319
0.011349
0.00107165
0.0113571
0.0011625
0.0113745
0.00129272
0.0113799
0.00140558
0.0113862
0.00156322
0.0113826
0.00170693
0.0113733
0.00189732
0.0113572
0.00206899
0.011322
0.00230397
0.0112829
0.00249713
0.0112101
0.00276979
0.0111173
0.00298783
0.0109778
0.00329204
0.00353032
0.010811
0.0100021
-1.13353e-06
0.0100067
1.72411e-06
0.0100154
-1.0786e-06
0.0100265
1.92295e-06
0.0100408
-8.78196e-07
0.0100567
2.01997e-06
0.0100746
-2.98725e-07
0.0100934
1.94458e-06
0.0101131
3.90183e-07
0.0101335
1.75548e-06
0.0101539
1.31177e-06
0.0101754
1.69359e-06
0.0101965
2.29952e-06
0.010219
1.82329e-06
0.0102408
3.45185e-06
0.0102643
2.17176e-06
0.0102866
4.82704e-06
0.0103106
2.81806e-06
0.010333
6.51509e-06
0.0103573
4.04024e-06
0.0103797
8.27055e-06
0.0104042
6.02388e-06
0.0104267
1.00407e-05
0.0104512
8.89952e-06
0.0104738
1.22389e-05
0.010498
1.23317e-05
0.0105206
1.54175e-05
0.0105447
1.6187e-05
0.010567
1.9858e-05
0.0105908
2.08616e-05
0.0106129
2.55785e-05
0.0106363
2.66611e-05
0.0106579
3.30301e-05
0.010681
3.34126e-05
0.0107019
4.28728e-05
0.0107247
4.15344e-05
0.0107451
5.46244e-05
0.0107672
5.28574e-05
0.0107875
6.71415e-05
0.0108083
6.88236e-05
0.0108292
8.11698e-05
0.0108484
8.85068e-05
0.0108695
9.94545e-05
0.0108885
0.000110757
0.0109082
0.00012315
0.0109289
0.000137542
0.0109462
0.000150612
0.0109689
0.000172035
0.0109851
0.000182054
0.0110088
0.000213445
0.0110249
0.000221864
0.0110501
0.000259739
0.0110663
0.00027234
0.0110932
0.00031346
0.0111108
0.000332302
0.011138
0.000377998
0.0111595
0.000403236
0.0111854
0.000454401
0.0112121
0.00048777
0.0112364
0.00054548
0.011268
0.000588245
0.0112922
0.000653622
0.011325
0.000710925
0.0113523
0.000781047
0.0113818
0.000862207
0.0114134
0.000935766
0.0114375
0.00104756
0.0114718
0.00112815
0.0114882
0.00127632
0.0115238
0.00137
0.0115288
0.00155822
0.0115575
0.00167824
0.0115551
0.00189967
0.0115568
0.00206731
0.011548
0.00231276
0.011514
0.00253115
0.0114745
0.00280933
0.0113898
0.00307248
0.0113002
0.00338166
0.00369358
0.0111369
0.0100019
-3.08017e-06
0.0100069
-3.20655e-06
0.0100153
-9.51064e-06
0.0100267
-9.46346e-06
0.0100407
-1.48361e-05
0.010057
-1.43518e-05
0.0100745
-1.77509e-05
0.0100938
-1.74147e-05
0.010113
-1.87791e-05
0.0101339
-1.9173e-05
0.0101539
-1.86684e-05
0.0101758
-2.01981e-05
0.0101966
-1.85165e-05
0.0102194
-2.09643e-05
0.0102412
-1.83269e-05
0.0102647
-2.13193e-05
0.0102871
-1.76152e-05
0.010311
-2.10799e-05
0.0103337
-1.61941e-05
0.0103579
-2.01217e-05
0.0103807
-1.45722e-05
0.010405
-1.822e-05
0.010428
-1.30088e-05
0.0104521
-1.52117e-05
0.0104755
-1.10936e-05
0.0104993
-1.15318e-05
0.0105228
-8.04215e-06
0.0105464
-7.43188e-06
0.0105698
-3.48884e-06
0.0105931
-2.47505e-06
0.0106163
2.38084e-06
0.0106391
3.85156e-06
0.0106623
9.8042e-06
0.0106844
1.13843e-05
0.0107075
1.96817e-05
0.010729
2.00798e-05
0.0107517
3.18892e-05
0.0107731
3.15394e-05
0.0107951
4.50593e-05
0.0108161
4.78569e-05
0.0108382
5.91234e-05
0.0108582
6.84831e-05
0.0108807
7.69442e-05
0.0108999
9.1507e-05
0.0109224
0.000100702
0.0109422
0.000117696
0.0109636
0.00012926
0.0109851
0.00015048
0.0110057
0.00016153
0.0110285
0.000190599
0.0110496
0.000200765
0.0110735
0.000235809
0.0110954
0.000250516
0.0111217
0.000287102
0.0111441
0.00030997
0.0111731
0.000348905
0.011197
0.000379382
0.0112291
0.000422265
0.0112539
0.000462993
0.0112913
0.000508125
0.011316
0.000563521
0.0113581
0.000611542
0.0113851
0.000683918
0.0114289
0.000737177
0.0114597
0.000831419
0.0115047
0.000890805
0.0115381
0.00101413
0.0115828
0.00108344
0.0116194
0.0012398
0.0116578
0.00133152
0.0116979
0.00151811
0.0117255
0.00165073
0.0117569
0.00186822
0.0117734
0.00205075
0.0117839
0.00230236
0.0117699
0.00254511
0.0117548
0.00282446
0.0116873
0.00313994
0.0116194
0.00344959
0.00382222
0.0114907
0.0100019
-4.93448e-06
0.0100073
-8.68115e-06
0.0100159
-1.80754e-05
0.0100282
-2.17302e-05
0.0100422
-2.88443e-05
0.0100595
-3.16851e-05
0.0100767
-3.49728e-05
0.0100969
-3.75657e-05
0.0101156
-3.75231e-05
0.0101371
-4.06641e-05
0.0101568
-3.83652e-05
0.010179
-4.24336e-05
0.0102
-3.9494e-05
0.0102227
-4.36902e-05
0.0102452
-4.07531e-05
0.0102681
-4.42314e-05
0.0102915
-4.10476e-05
0.0103146
-4.41207e-05
0.0103383
-3.99728e-05
0.0103618
-4.35785e-05
0.0103854
-3.82156e-05
0.0104094
-4.22041e-05
0.0104329
-3.646e-05
0.0104572
-3.94947e-05
0.0104806
-3.45771e-05
0.0105049
-3.57553e-05
0.0105285
-3.16887e-05
0.0105524
-3.12997e-05
0.0105762
-2.73377e-05
0.0105995
-2.57097e-05
0.0106237
-2.1852e-05
0.0106459
-1.83876e-05
0.0106707
-1.4964e-05
0.0106919
-9.8483e-06
0.0107169
-5.3249e-06
0.0107377
-6.51548e-07
0.010762
7.51736e-06
0.0107833
1.02727e-05
0.0108063
2.20175e-05
0.0108283
2.59213e-05
0.0108508
3.66425e-05
0.0108721
4.71263e-05
0.0108954
5.36908e-05
0.0109158
7.11207e-05
0.0109395
7.69428e-05
0.0109605
9.67673e-05
0.0109833
0.000106407
0.0110063
0.000127443
0.0110283
0.00013956
0.0110532
0.000165677
0.0110756
0.000178378
0.0111024
0.000209074
0.0111253
0.000227576
0.0111554
0.000256995
0.0111782
0.000287191
0.0112128
0.000314275
0.0112366
0.000355588
0.0112744
0.000384442
0.0113025
0.000434967
0.0113415
0.000469056
0.0113759
0.000529147
0.0114163
0.00057117
0.0114576
0.000642624
0.0114988
0.000695894
0.0115497
0.000780612
0.0115884
0.000852017
0.011653
0.000949609
0.0116868
0.00104957
0.0117612
0.00116539
0.0117972
0.00129561
0.0118683
0.00144699
0.0119073
0.00161165
0.0119721
0.00180351
0.0120003
0.00202252
0.012043
0.00225963
0.0120577
0.00253046
0.0120513
0.00283086
0.0120349
0.0031563
0.0119559
0.00352855
0.0038968
0.0118814
0.0100017
-6.67299e-06
0.010008
-1.49317e-05
0.0100173
-2.7351e-05
0.0100308
-3.52809e-05
0.0100458
-4.38648e-05
0.010064
-4.98522e-05
0.0100819
-5.28996e-05
0.0101023
-5.79329e-05
0.0101215
-5.66988e-05
0.0101428
-6.19785e-05
0.0101631
-5.86753e-05
0.0101851
-6.43982e-05
0.010207
-6.14799e-05
0.0102293
-6.58938e-05
0.0102529
-6.44112e-05
0.0102749
-6.62111e-05
0.0102997
-6.58567e-05
0.0103216
-6.60658e-05
0.0103468
-6.51336e-05
0.0103693
-6.60509e-05
0.0103942
-6.31124e-05
0.0104174
-6.54521e-05
0.010442
-6.09906e-05
0.0104657
-6.32757e-05
0.0104901
-5.89837e-05
0.0105141
-5.97166e-05
0.0105384
-5.60313e-05
0.0105624
-5.52542e-05
0.0105866
-5.15469e-05
0.0106104
-4.94583e-05
0.0106346
-4.61131e-05
0.0106578
-4.15477e-05
0.0106824
-3.95517e-05
0.0107047
-3.22246e-05
0.0107295
-3.01069e-05
0.0107515
-2.26699e-05
0.010776
-1.69005e-05
0.0107983
-1.20463e-05
0.0108216
-1.29694e-06
0.010845
2.48072e-06
0.0108669
1.4799e-05
0.0108915
2.24838e-05
0.0109124
3.28505e-05
0.0109378
4.56699e-05
0.0109584
5.63506e-05
0.0109846
7.05451e-05
0.0110051
8.58982e-05
0.0110326
9.99436e-05
0.0110537
0.000118481
0.0110817
0.000137708
0.0111057
0.000154384
0.0111327
0.00018205
0.0111611
0.000199141
0.0111882
0.000229918
0.0112202
0.000255212
0.0112492
0.000285248
0.0112852
0.000319606
0.0113162
0.000353458
0.0113579
0.000393261
0.0113912
0.000435753
0.0114394
0.000480892
0.0114755
0.000535128
0.0115327
0.000585436
0.0115707
0.00065791
0.0116383
0.000712935
0.0116814
0.000808933
0.0117567
0.000874378
0.0118072
0.000999045
0.0118937
0.00107885
0.0119459
0.00124342
0.0120413
0.00135156
0.0121023
0.00155071
0.0121862
0.00171956
0.0122561
0.00195266
0.0123167
0.00219899
0.0123707
0.00247648
0.0123884
0.0028132
0.0124063
0.00313837
0.0123601
0.00357477
0.00396978
0.0122871
0.010002
-8.65757e-06
0.0100093
-2.22171e-05
0.0100202
-3.83165e-05
0.0100352
-5.02129e-05
0.0100524
-6.10643e-05
0.010071
-6.85328e-05
0.0100905
-7.2389e-05
0.0101106
-7.79529e-05
0.0101306
-7.67364e-05
0.0101517
-8.30882e-05
0.0101726
-7.9576e-05
0.0101951
-8.68731e-05
0.0102174
-8.37564e-05
0.0102402
-8.87218e-05
0.010264
-8.82173e-05
0.0102862
-8.84268e-05
0.0103115
-9.11495e-05
0.010333
-8.76059e-05
0.0103593
-9.14422e-05
0.0103808
-8.75133e-05
0.0104074
-8.97063e-05
0.0104294
-8.7405e-05
0.0104557
-8.73043e-05
0.0104784
-8.60389e-05
0.010504
-8.45866e-05
0.0105279
-8.36213e-05
0.0105523
-8.03904e-05
0.0105776
-8.05142e-05
0.0106006
-7.45698e-05
0.0106267
-7.55255e-05
0.0106492
-6.8681e-05
0.0106749
-6.71953e-05
0.0106981
-6.27447e-05
0.0107225
-5.67143e-05
0.0107465
-5.40954e-05
0.0107703
-4.64156e-05
0.0107943
-4.0954e-05
0.0108182
-3.59044e-05
0.0108415
-2.46078e-05
0.0108663
-2.2364e-05
0.0108882
-7.05178e-06
0.0109146
-3.8902e-06
0.0109355
1.18965e-05
0.0109624
1.88208e-05
0.0109843
3.44236e-05
0.0110103
4.45368e-05
0.0110345
6.17132e-05
0.01106
7.44014e-05
0.0110859
9.26113e-05
0.0111122
0.000111383
0.0111404
0.00012617
0.0111669
0.000155589
0.0111993
0.000166771
0.0112269
0.000202327
0.0112612
0.00022087
0.0112949
0.000251536
0.0113286
0.000285895
0.0113697
0.000312398
0.0114067
0.000356254
0.0114517
0.000390718
0.0114966
0.000436065
0.0115454
0.00048631
0.0115992
0.000531625
0.0116544
0.000602726
0.0117169
0.000650403
0.011783
0.000742788
0.0118534
0.000804064
0.0119354
0.00091701
0.0120129
0.00100136
0.0121116
0.0011447
0.0122006
0.00126252
0.0123111
0.00144028
0.0124039
0.00162673
0.0125239
0.00183266
0.0126076
0.00211529
0.0127062
0.00237793
0.0127726
0.0027468
0.0128083
0.00310267
0.0128192
0.00356386
0.00403161
0.0127573
0.0100027
-1.13323e-05
0.0100118
-3.13884e-05
0.0100255
-5.2001e-05
0.010043
-6.76432e-05
0.0100626
-8.0695e-05
0.0100823
-8.82815e-05
0.0101028
-9.28571e-05
0.010123
-9.81752e-05
0.0101433
-9.7022e-05
0.0101652
-0.000105011
0.0101861
-0.000100423
0.0102103
-0.000111094
0.0102316
-0.000105085
0.0102567
-0.000113816
0.0102789
-0.000110361
0.0103035
-0.000113011
0.0103269
-0.000114614
0.0103507
-0.000111354
0.0103754
-0.000116201
0.0103988
-0.000110873
0.0104243
-0.000115211
0.0104477
-0.000110773
0.0104735
-0.000113095
0.0104971
-0.000109647
0.0105226
-0.00011017
0.0105471
-0.000108104
0.0105714
-0.000104679
0.0105978
-0.000106862
0.01062
-9.68087e-05
0.010648
-0.000103569
0.0106693
-8.99112e-05
0.0106971
-9.50288e-05
0.0107194
-8.50433e-05
0.0107453
-8.26386e-05
0.0107696
-7.83211e-05
0.0107936
-7.04781e-05
0.0108191
-6.64648e-05
0.0108422
-5.89946e-05
0.0108682
-5.05848e-05
0.0108911
-4.53116e-05
0.0109169
-3.28545e-05
0.0109406
-2.75072e-05
0.0109657
-1.32061e-05
0.0109906
-6.06858e-06
0.0110153
9.67155e-06
0.0110417
1.81192e-05
0.011066
3.73904e-05
0.0110955
4.49839e-05
0.0111178
7.02393e-05
0.0111526
7.66273e-05
0.0111726
0.000106188
0.0112126
0.000115599
0.0112336
0.000145784
0.0112755
0.00016043
0.0113014
0.000194889
0.0113449
0.000208024
0.0113762
0.000254645
0.011423
0.000265634
0.0114618
0.000317394
0.0115105
0.000342008
0.0115597
0.000386916
0.0116135
0.000432448
0.0116704
0.000474774
0.0117359
0.000537183
0.0117991
0.000587258
0.0118835
0.000658329
0.0119484
0.000739239
0.0120625
0.000802867
0.012134
0.000929896
0.0122675
0.00101112
0.0123649
0.00116514
0.0125103
0.00129495
0.0126389
0.00149809
0.0127798
0.00169177
0.0129374
0.00195768
0.0130515
0.00226387
0.013197
0.00260122
0.0132728
0.00302689
0.0133384
0.0034983
0.00405954
0.0133105
0.0100041
-1.54819e-05
0.0100166
-4.38103e-05
0.010035
-7.04476e-05
0.0100561
-8.8773e-05
0.0100784
-0.000102985
0.0100989
-0.000108781
0.0101201
-0.000114032
0.0101403
-0.000118386
0.0101617
-0.000118417
0.0101843
-0.000127599
0.0102061
-0.000122241
0.0102313
-0.000136261
0.0102527
-0.000126479
0.0102792
-0.000140374
0.0103002
-0.000131293
0.010327
-0.000139849
0.0103484
-0.000135972
0.0103749
-0.000137921
0.0103975
-0.000138714
0.0104233
-0.000136717
0.0104475
-0.000139404
0.0104718
-0.00013508
0.0104983
-0.000139589
0.0105205
-0.000131809
0.0105491
-0.000138834
0.01057
-0.000128993
0.0105989
-0.000133585
0.0106209
-0.000128872
0.0106477
-0.000123602
0.0106722
-0.000128065
0.0106968
-0.000114553
0.0107224
-0.000120556
0.0107471
-0.000109728
0.0107715
-0.00010703
0.0107975
-0.000104415
0.0108203
-9.32519e-05
0.0108477
-9.3867e-05
0.0108691
-8.03414e-05
0.0108978
-7.93331e-05
0.0109178
-6.53288e-05
0.0109475
-6.25139e-05
0.0109676
-4.76198e-05
0.0109965
-4.21107e-05
0.0110192
-2.88024e-05
0.0110458
-1.68639e-05
0.0110725
-8.58605e-06
0.0110972
1.26908e-05
0.0111268
1.53864e-05
0.0111521
4.49018e-05
0.0111836
4.51824e-05
0.0112115
7.82273e-05
0.0112431
8.40443e-05
0.0112786
0.000110267
0.0113049
0.000134152
0.0113537
0.000146056
0.0113763
0.000185416
0.0114315
0.000199505
0.0114643
0.000232755
0.0115158
0.000265921
0.0115653
0.000292558
0.0116168
0.000335383
0.011679
0.000370288
0.0117385
0.000415204
0.0118085
0.000467184
0.0118869
0.0005089
0.0119646
0.000580639
0.012059
0.000644781
0.0121645
0.000697429
0.0122663
0.000828095
0.0123971
0.000880317
0.0125475
0.00101474
0.0126753
0.00116716
0.0128874
0.00128593
0.0130387
0.00154046
0.0132622
0.00173423
0.0134494
0.00207664
0.0136392
0.00241148
0.0137923
0.00287374
0.0139457
0.00334487
0.00403232
0.013973
0.0100071
-2.26166e-05
0.0100269
-6.357e-05
0.010052
-9.5586e-05
0.0100773
-0.000114075
0.0101008
-0.000126435
0.0101229
-0.000130939
0.0101441
-0.000135153
0.0101652
-0.000139502
0.0101878
-0.000140988
0.010211
-0.000150804
0.0102351
-0.000146395
0.0102593
-0.000160404
0.0102831
-0.000150296
0.0103075
-0.000164785
0.0103303
-0.000154161
0.0103555
-0.000165024
0.0103776
-0.000158032
0.0104038
-0.000164109
0.0104254
-0.00016033
0.010452
-0.000163291
0.010474
-0.000161424
0.0104995
-0.000160608
0.0105232
-0.000163264
0.0105464
-0.000155051
0.0105722
-0.000164636
0.0105934
-0.000150125
0.01062
-0.000160256
0.010641
-0.00014982
0.0106663
-0.000148884
0.010689
-0.000150838
0.0107115
-0.000136979
0.0107367
-0.000145795
0.0107562
-0.000129251
0.0107836
-0.00013437
0.0108007
-0.000121571
0.0108295
-0.000121999
0.0108453
-0.000109682
0.0108741
-0.000109151
0.0108905