/*--------------------------------*- C++ -*----------------------------------*\
| =========                 |                                                 |
| \\      /  F ield         | OpenFOAM: The Open Source CFD Toolbox           |
|  \\    /   O peration     | Version:  2306                                  |
|   \\  /    A nd           | Website:  www.openfoam.com                      |
|    \\/     M anipulation  |                                                 |
\*---------------------------------------------------------------------------*/
FoamFile
{
    version     2.0;
    format      ascii;
    arch        "LSB;label=32;scalar=64";
    class       volVectorField;
    location    "0.325";
    object      U;
}
// * * * * * * * * * * * * * * * * * * * * * * * * * * * * * * * * * * * * * //

dimensions      [0 1 -1 0 0 0 0];

internalField   nonuniform List<vector> 
4400
(
(9.90185 0.0455337 0)
(9.80621 0.0986824 0)
(9.70016 0.120985 0)
(9.57015 0.125764 0)
(9.41827 0.124498 0)
(9.25214 0.123443 0)
(9.0807 0.124149 0)
(8.90814 0.125681 0)
(8.73736 0.126983 0)
(8.56773 0.127411 0)
(8.40022 0.126875 0)
(8.23325 0.125546 0)
(8.06807 0.123771 0)
(7.90315 0.121733 0)
(7.74008 0.119673 0)
(7.57751 0.117519 0)
(7.41708 0.115446 0)
(7.2575 0.113242 0)
(7.10019 0.11108 0)
(6.94407 0.10876 0)
(6.79034 0.106451 0)
(6.63802 0.104049 0)
(6.48819 0.101606 0)
(6.33986 0.0991494 0)
(6.19423 0.0966107 0)
(6.05004 0.0941641 0)
(5.90885 0.0915904 0)
(5.7689 0.0891588 0)
(5.6323 0.0866041 0)
(5.49661 0.0842419 0)
(5.36464 0.0817754 0)
(5.23322 0.0795066 0)
(5.10574 0.0771897 0)
(4.97843 0.0750607 0)
(4.85505 0.0729387 0)
(4.73147 0.0709971 0)
(4.61164 0.0691589 0)
(4.49116 0.0675214 0)
(4.37407 0.0660877 0)
(4.2557 0.06489 0)
(4.14021 0.06403 0)
(4.02267 0.063446 0)
(3.90731 0.0633136 0)
(3.78898 0.0634804 0)
(3.67189 0.0642321 0)
(3.5507 0.0652764 0)
(3.42949 0.0670508 0)
(3.30281 0.0690865 0)
(3.17454 0.0720047 0)
(3.03916 0.0751903 0)
(2.90037 0.0793658 0)
(2.75243 0.0838043 0)
(2.59916 0.08931 0)
(2.43427 0.0949896 0)
(2.26221 0.101764 0)
(2.07571 0.108439 0)
(1.88047 0.116055 0)
(1.66805 0.122998 0)
(1.44597 0.130391 0)
(1.20473 0.135994 0)
(0.954191 0.140849 0)
(0.68408 0.141494 0)
(0.406555 0.135333 0)
(0.128263 0.105258 0)
(-0.1256 0.0513386 0)
(-0.374996 -0.0306458 0)
(-0.555959 -0.121942 0)
(-0.676753 -0.231175 0)
(-0.692004 -0.353865 0)
(-0.631103 -0.492317 0)
(-0.438636 -0.61775 0)
(-0.178996 -0.707236 0)
(0.110297 -0.577275 0)
(0.268238 -0.225318 0)
(0.378463 0.465479 0)
(-0.371076 0.923379 0)
(-0.626554 0.332593 0)
(-0.238758 -0.0847155 0)
(0.0124076 -0.0923414 0)
(-0.116169 -0.256496 0)
(10.0005 0.0612078 0)
(10.0316 0.137419 0)
(10.0699 0.173619 0)
(10.1048 0.184954 0)
(10.1329 0.186109 0)
(10.1498 0.186316 0)
(10.1593 0.188185 0)
(10.1606 0.192077 0)
(10.1595 0.195789 0)
(10.1534 0.199255 0)
(10.1471 0.200979 0)
(10.1364 0.202146 0)
(10.1256 0.202035 0)
(10.1103 0.20191 0)
(10.0943 0.201263 0)
(10.0744 0.200731 0)
(10.0532 0.20009 0)
(10.029 0.199353 0)
(10.003 0.198613 0)
(9.97464 0.197635 0)
(9.94456 0.196635 0)
(9.91225 0.195476 0)
(9.87863 0.194186 0)
(9.84228 0.19285 0)
(9.80561 0.191347 0)
(9.7652 0.189876 0)
(9.72577 0.188244 0)
(9.68135 0.186691 0)
(9.63931 0.18494 0)
(9.59106 0.183416 0)
(9.5463 0.181605 0)
(9.49449 0.180169 0)
(9.44674 0.178395 0)
(9.39152 0.177134 0)
(9.34046 0.175491 0)
(9.28179 0.174568 0)
(9.22707 0.173158 0)
(9.16469 0.172769 0)
(9.10585 0.171802 0)
(9.03924 0.17212 0)
(8.9756 0.171867 0)
(8.90392 0.173121 0)
(8.83459 0.173929 0)
(8.7568 0.176405 0)
(8.68043 0.178732 0)
(8.5953 0.182694 0)
(8.51001 0.187056 0)
(8.41586 0.192907 0)
(8.31938 0.199631 0)
(8.21381 0.208042 0)
(8.10354 0.217281 0)
(7.9833 0.229022 0)
(7.85611 0.240963 0)
(7.71714 0.256593 0)
(7.56922 0.271432 0)
(7.40678 0.291185 0)
(7.2334 0.308936 0)
(7.04227 0.332449 0)
(6.83787 0.352518 0)
(6.6126 0.378445 0)
(6.37132 0.398637 0)
(6.1064 0.423805 0)
(5.82279 0.438475 0)
(5.51441 0.455213 0)
(5.19035 0.452875 0)
(4.84923 0.44996 0)
(4.46857 0.417911 0)
(4.06811 0.385346 0)
(3.59168 0.324906 0)
(3.07635 0.283592 0)
(2.39001 0.216289 0)
(1.57997 0.217445 0)
(0.530139 0.1561 0)
(-0.183902 0.0155575 0)
(-0.580735 0.0940204 0)
(-0.548483 0.0444953 0)
(-0.227957 -0.542634 0)
(-0.590356 -0.678911 0)
(-0.622723 -0.0299848 0)
(-0.514642 0.530494 0)
(10.0005 0.0267921 0)
(10.0164 0.0696229 0)
(10.0432 0.100011 0)
(10.0744 0.117365 0)
(10.1087 0.126964 0)
(10.139 0.131771 0)
(10.1676 0.136 0)
(10.1906 0.140291 0)
(10.2133 0.14538 0)
(10.2326 0.150403 0)
(10.2537 0.154885 0)
(10.2728 0.158748 0)
(10.2935 0.161682 0)
(10.3129 0.164123 0)
(10.3323 0.166161 0)
(10.3512 0.167702 0)
(10.3687 0.169657 0)
(10.3865 0.170615 0)
(10.4019 0.172631 0)
(10.4184 0.17312 0)
(10.4321 0.175009 0)
(10.4469 0.175263 0)
(10.4591 0.176757 0)
(10.4716 0.176987 0)
(10.4827 0.177945 0)
(10.4924 0.178398 0)
(10.5024 0.178747 0)
(10.5089 0.179603 0)
(10.5176 0.179343 0)
(10.5209 0.180643 0)
(10.528 0.180051 0)
(10.528 0.181596 0)
(10.5329 0.18113 0)
(10.53 0.182779 0)
(10.5319 0.1828 0)
(10.526 0.184638 0)
(10.5245 0.185407 0)
(10.5155 0.187592 0)
(10.5102 0.189497 0)
(10.4976 0.192216 0)
(10.4882 0.195544 0)
(10.4714 0.199332 0)
(10.4573 0.204252 0)
(10.4358 0.209782 0)
(10.4164 0.216798 0)
(10.3893 0.224374 0)
(10.3638 0.23445 0)
(10.3298 0.244344 0)
(10.2975 0.258313 0)
(10.2552 0.271173 0)
(10.2147 0.289688 0)
(10.1625 0.306243 0)
(10.1121 0.33007 0)
(10.0477 0.350934 0)
(9.9857 0.380591 0)
(9.9061 0.406511 0)
(9.83023 0.441902 0)
(9.73182 0.472979 0)
(9.63876 0.513674 0)
(9.51768 0.547932 0)
(9.40184 0.592386 0)
(9.25425 0.625009 0)
(9.10655 0.66811 0)
(8.9272 0.6908 0)
(8.73413 0.722628 0)
(8.51404 0.72587 0)
(8.25213 0.73985 0)
(7.96291 0.72582 0)
(7.60957 0.738143 0)
(7.22318 0.742316 0)
(6.75691 0.801478 0)
(6.23934 0.872371 0)
(5.66519 0.99492 0)
(4.99166 0.995323 0)
(4.40277 0.913222 0)
(3.40153 0.78215 0)
(2.75729 0.515209 0)
(1.45657 0.394675 0)
(0.0804339 -0.100795 0)
(-0.188382 -0.49637 0)
(10.0005 0.018911 0)
(10.0097 0.0524415 0)
(10.0283 0.0808313 0)
(10.0506 0.100988 0)
(10.0786 0.11493 0)
(10.1046 0.123001 0)
(10.1324 0.128449 0)
(10.1555 0.132615 0)
(10.1802 0.13616 0)
(10.2007 0.140601 0)
(10.2241 0.143623 0)
(10.2449 0.147988 0)
(10.2687 0.149855 0)
(10.2907 0.153266 0)
(10.3146 0.154093 0)
(10.3378 0.156485 0)
(10.3611 0.157107 0)
(10.3847 0.158705 0)
(10.4072 0.159567 0)
(10.4308 0.160567 0)
(10.4529 0.161717 0)
(10.4761 0.162291 0)
(10.4979 0.163583 0)
(10.5204 0.163778 0)
(10.542 0.165273 0)
(10.5634 0.165141 0)
(10.585 0.166861 0)
(10.6046 0.166611 0)
(10.6263 0.168384 0)
(10.6437 0.168413 0)
(10.6658 0.170071 0)
(10.6801 0.170693 0)
(10.7027 0.172252 0)
(10.7136 0.173752 0)
(10.7363 0.175208 0)
(10.7441 0.178022 0)
(10.7662 0.179349 0)
(10.7709 0.18389 0)
(10.7921 0.185414 0)
(10.7933 0.191794 0)
(10.8133 0.194214 0)
(10.8111 0.202399 0)
(10.8288 0.206694 0)
(10.8243 0.216451 0)
(10.8377 0.224022 0)
(10.832 0.234909 0)
(10.8398 0.247204 0)
(10.8329 0.259456 0)
(10.8348 0.276839 0)
(10.8259 0.292275 0)
(10.822 0.313819 0)
(10.8099 0.335224 0)
(10.8005 0.359852 0)
(10.7838 0.389482 0)
(10.7685 0.416942 0)
(10.7469 0.455877 0)
(10.7238 0.486472 0)
(10.6969 0.534812 0)
(10.6643 0.567953 0)
(10.6283 0.625333 0)
(10.5869 0.658194 0)
(10.5325 0.722711 0)
(10.4823 0.751234 0)
(10.3965 0.816665 0)
(10.33 0.838637 0)
(10.197 0.897184 0)
(10.0982 0.919268 0)
(9.89953 0.975607 0)
(9.75311 1.01676 0)
(9.47212 1.08906 0)
(9.26767 1.1719 0)
(8.88916 1.27413 0)
(8.62395 1.37913 0)
(8.12355 1.46045 0)
(7.76602 1.494 0)
(7.13484 1.52151 0)
(6.5872 1.49012 0)
(5.88255 1.49197 0)
(5.01008 1.48236 0)
(4.14965 1.22469 0)
(10.0004 0.0133585 0)
(10.0065 0.0383173 0)
(10.0202 0.0605744 0)
(10.0364 0.0776472 0)
(10.0594 0.0907554 0)
(10.0807 0.0987157 0)
(10.1069 0.104611 0)
(10.1276 0.108156 0)
(10.1535 0.111432 0)
(10.172 0.114479 0)
(10.1976 0.117195 0)
(10.2155 0.120586 0)
(10.242 0.122595 0)
(10.2604 0.125728 0)
(10.2877 0.126734 0)
(10.307 0.129272 0)
(10.3345 0.129812 0)
(10.3543 0.131648 0)
(10.3814 0.13241 0)
(10.4016 0.133542 0)
(10.4284 0.134906 0)
(10.4485 0.1354 0)
(10.4753 0.137248 0)
(10.4951 0.137267 0)
(10.5219 0.139555 0)
(10.5412 0.139173 0)
(10.5678 0.141973 0)
(10.5865 0.141243 0)
(10.6128 0.144555 0)
(10.6307 0.143832 0)
(10.6565 0.147359 0)
(10.6732 0.147288 0)
(10.6989 0.150661 0)
(10.7136 0.151873 0)
(10.7395 0.154922 0)
(10.7519 0.157764 0)
(10.7776 0.160791 0)
(10.7879 0.165304 0)
(10.8129 0.16883 0)
(10.821 0.17531 0)
(10.8456 0.179298 0)
(10.8506 0.188983 0)
(10.8753 0.192792 0)
(10.8771 0.206946 0)
(10.9007 0.210994 0)
(10.901 0.229233 0)
(10.9214 0.236002 0)
(10.9217 0.256542 0)
(10.9379 0.269204 0)
(10.939 0.290523 0)
(10.9502 0.311772 0)
(10.9526 0.333128 0)
(10.9593 0.364727 0)
(10.9611 0.386951 0)
(10.9673 0.428256 0)
(10.9633 0.454585 0)
(10.9746 0.502936 0)
(10.9595 0.536026 0)
(10.9787 0.590698 0)
(10.9502 0.628593 0)
(10.9758 0.691103 0)
(10.9311 0.730335 0)
(10.9598 0.798942 0)
(10.8918 0.839695 0)
(10.918 0.910497 0)
(10.8165 0.956299 0)
(10.8297 1.03271 0)
(10.6861 1.09107 0)
(10.6718 1.18397 0)
(10.482 1.26547 0)
(10.4243 1.38247 0)
(10.1879 1.49485 0)
(10.0699 1.62249 0)
(9.78805 1.75065 0)
(9.57505 1.85078 0)
(9.24411 1.96313 0)
(8.87307 2.00855 0)
(8.45315 2.06527 0)
(7.84082 2.03828 0)
(7.19029 1.94513 0)
(10.0012 0.00958169 0)
(10.0039 0.027897 0)
(10.0165 0.0449881 0)
(10.0274 0.0584364 0)
(10.0482 0.0703466 0)
(10.0646 0.0772697 0)
(10.0902 0.0838535 0)
(10.1079 0.0866625 0)
(10.1348 0.0905606 0)
(10.1513 0.0923045 0)
(10.1787 0.0954008 0)
(10.1942 0.097378 0)
(10.2228 0.100029 0)
(10.2382 0.101976 0)
(10.268 0.103908 0)
(10.2838 0.105538 0)
(10.3143 0.106855 0)
(10.3306 0.10811 0)
(10.3609 0.109195 0)
(10.3777 0.110252 0)
(10.4077 0.111446 0)
(10.4248 0.112352 0)
(10.4542 0.113682 0)
(10.4717 0.114539 0)
(10.5005 0.116051 0)
(10.5183 0.116901 0)
(10.5462 0.11865 0)
(10.5645 0.119513 0)
(10.5909 0.121671 0)
(10.6101 0.122545 0)
(10.6342 0.125384 0)
(10.6547 0.126242 0)
(10.6765 0.130025 0)
(10.6974 0.131181 0)
(10.7176 0.135509 0)
(10.7379 0.138187 0)
(10.7572 0.141989 0)
(10.776 0.14771 0)
(10.7952 0.150454 0)
(10.8112 0.159653 0)
(10.8321 0.162069 0)
(10.8426 0.17466 0)
(10.8679 0.177253 0)
(10.8703 0.194027 0)
(10.9016 0.196891 0)
(10.8958 0.218036 0)
(10.932 0.223334 0)
(10.9197 0.246721 0)
(10.9594 0.258326 0)
(10.9416 0.281954 0)
(10.9848 0.302261 0)
(10.9616 0.326048 0)
(11.0088 0.356486 0)
(10.9802 0.379999 0)
(11.032 0.422927 0)
(10.9982 0.445554 0)
(11.0544 0.501149 0)
(11.017 0.525805 0)
(11.0749 0.589622 0)
(11.0367 0.621848 0)
(11.0916 0.688532 0)
(11.0543 0.731867 0)
(11.1009 0.798546 0)
(11.0625 0.855922 0)
(11.0972 0.920534 0)
(11.0493 0.999235 0)
(11.071 1.06098 0)
(11.0027 1.17143 0)
(11.007 1.2346 0)
(10.9139 1.38291 0)
(10.89 1.45892 0)
(10.7755 1.63868 0)
(10.71 1.73901 0)
(10.5773 1.92629 0)
(10.4505 2.04927 0)
(10.2862 2.20155 0)
(10.0598 2.333 0)
(9.80752 2.41319 0)
(9.43226 2.53156 0)
(8.99446 2.53478 0)
(10.0024 0.00680937 0)
(10.002 0.0200617 0)
(10.0147 0.0326533 0)
(10.022 0.042975 0)
(10.0412 0.0525534 0)
(10.0549 0.05846 0)
(10.0783 0.0644425 0)
(10.0955 0.066944 0)
(10.1202 0.0706088 0)
(10.1382 0.071741 0)
(10.1633 0.074579 0)
(10.1812 0.0758017 0)
(10.2071 0.0782084 0)
(10.2247 0.0797117 0)
(10.2519 0.0813174 0)
(10.2696 0.0831598 0)
(10.2979 0.0836586 0)
(10.3157 0.0859356 0)
(10.3443 0.0854336 0)
(10.3627 0.0884295 0)
(10.3908 0.0871485 0)
(10.41 0.0909253 0)
(10.4368 0.0889851 0)
(10.4575 0.0935115 0)
(10.4825 0.0913085 0)
(10.5046 0.096063 0)
(10.5279 0.094404 0)
(10.551 0.0985431 0)
(10.5728 0.0984241 0)
(10.5967 0.101359 0)
(10.6167 0.103299 0)
(10.6414 0.1051 0)
(10.6598 0.109104 0)
(10.6841 0.110211 0)
(10.7023 0.1161 0)
(10.7246 0.117133 0)
(10.7438 0.124651 0)
(10.7629 0.126424 0)
(10.7838 0.135279 0)
(10.7989 0.138446 0)
(10.8228 0.148835 0)
(10.8316 0.153781 0)
(10.8614 0.165787 0)
(10.8607 0.173951 0)
(10.8993 0.186225 0)
(10.8867 0.200289 0)
(10.9362 0.21167 0)
(10.9108 0.232518 0)
(10.9708 0.244973 0)
(10.935 0.270853 0)
(11.0017 0.287602 0)
(10.9622 0.317279 0)
(11.0274 0.340263 0)
(10.9941 0.373496 0)
(11.0489 0.40416 0)
(11.0298 0.441283 0)
(11.0691 0.47962 0)
(11.0671 0.522813 0)
(11.0903 0.566808 0)
(11.104 0.618925 0)
(11.1129 0.667054 0)
(11.1377 0.730119 0)
(11.1338 0.782398 0)
(11.1656 0.858291 0)
(11.147 0.917563 0)
(11.1825 1.00722 0)
(11.1464 1.08108 0)
(11.1788 1.18528 0)
(11.125 1.2828 0)
(11.1474 1.40484 0)
(11.0727 1.53298 0)
(11.0844 1.67564 0)
(10.9832 1.83382 0)
(10.9811 1.99788 0)
(10.8488 2.16466 0)
(10.8084 2.35299 0)
(10.6352 2.49133 0)
(10.5114 2.70018 0)
(10.2558 2.79864 0)
(10.0065 3.00414 0)
(10.0032 0.00441187 0)
(10.0009 0.0139253 0)
(10.0137 0.0220352 0)
(10.0191 0.0299588 0)
(10.0367 0.0362394 0)
(10.0493 0.0413448 0)
(10.0701 0.0453789 0)
(10.0881 0.048005 0)
(10.1095 0.0503016 0)
(10.1302 0.0517361 0)
(10.1515 0.0533395 0)
(10.1734 0.0547464 0)
(10.1948 0.056088 0)
(10.2169 0.0575742 0)
(10.2393 0.058698 0)
(10.2615 0.0601721 0)
(10.285 0.0608897 0)
(10.3072 0.0623803 0)
(10.3314 0.0627007 0)
(10.3538 0.0645284 0)
(10.3782 0.0645287 0)
(10.4007 0.0667167 0)
(10.4247 0.0666307 0)
(10.4478 0.0690991 0)
(10.4709 0.0692523 0)
(10.4946 0.0717942 0)
(10.5169 0.0723877 0)
(10.5408 0.0749664 0)
(10.5625 0.0762263 0)
(10.5862 0.0786827 0)
(10.6075 0.0813549 0)
(10.6307 0.0827747 0)
(10.6518 0.0884588 0)
(10.6734 0.0874227 0)
(10.6957 0.0974947 0)
(10.7138 0.0938261 0)
(10.7391 0.107844 0)
(10.7523 0.103367 0)
(10.7813 0.119537 0)
(10.7887 0.116417 0)
(10.8229 0.1337 0)
(10.8217 0.133077 0)
(10.865 0.151102 0)
(10.8514 0.154687 0)
(10.9063 0.171607 0)
(10.88 0.18302 0)
(10.9448 0.196195 0)
(10.9097 0.217939 0)
(10.9795 0.227842 0)
(10.9418 0.25898 0)
(11.0104 0.268194 0)
(10.9771 0.308448 0)
(11.038 0.317052 0)
(11.0161 0.368204 0)
(11.064 0.377259 0)
(11.058 0.436471 0)
(11.0903 0.452855 0)
(11.1022 0.513892 0)
(11.1178 0.544046 0)
(11.1476 0.603422 0)
(11.1467 0.652066 0)
(11.192 0.706419 0)
(11.1759 0.780452 0)
(11.2335 0.827397 0)
(11.2009 0.931161 0)
(11.2692 0.975336 0)
(11.2162 1.10883 0)
(11.2943 1.15989 0)
(11.2157 1.3218 0)
(11.3017 1.39441 0)
(11.1967 1.57656 0)
(11.2808 1.69001 0)
(11.1568 1.88131 0)
(11.2233 2.04023 0)
(11.0809 2.24102 0)
(11.1185 2.42338 0)
(10.9412 2.64247 0)
(10.9219 2.83016 0)
(10.7004 3.05591 0)
(10.5619 3.25387 0)
(10.0031 0.00204957 0)
(10.0008 0.00891372 0)
(10.0124 0.0122165 0)
(10.0182 0.0185748 0)
(10.0332 0.0206284 0)
(10.047 0.0256544 0)
(10.0642 0.0264107 0)
(10.0847 0.0298905 0)
(10.1016 0.029744 0)
(10.1269 0.0321642 0)
(10.1425 0.032003 0)
(10.1706 0.0339117 0)
(10.185 0.0340756 0)
(10.2145 0.0355487 0)
(10.2292 0.0362073 0)
(10.2589 0.0371492 0)
(10.2748 0.0382522 0)
(10.304 0.038591 0)
(10.3218 0.0402197 0)
(10.3498 0.040281 0)
(10.3693 0.0420692 0)
(10.396 0.0424924 0)
(10.4166 0.0438207 0)
(10.4426 0.0454324 0)
(10.4635 0.0459263 0)
(10.4893 0.048785 0)
(10.51 0.0489119 0)
(10.5356 0.0523048 0)
(10.5561 0.0531093 0)
(10.5814 0.0563468 0)
(10.6015 0.058484 0)
(10.6266 0.0614589 0)
(10.6464 0.0652306 0)
(10.6698 0.0677631 0)
(10.6916 0.0738631 0)
(10.7103 0.0756419 0)
(10.7373 0.0843533 0)
(10.7484 0.086226 0)
(10.7821 0.0965146 0)
(10.7852 0.100191 0)
(10.8255 0.111413 0)
(10.8208 0.117298 0)
(10.8678 0.130198 0)
(10.8548 0.138736 0)
(10.9089 0.152043 0)
(10.8889 0.1675 0)
(10.9474 0.176226 0)
(10.9242 0.204776 0)
(10.9836 0.205368 0)
(10.9606 0.248758 0)
(11.0188 0.243641 0)
(10.9991 0.298399 0)
(11.0522 0.293204 0)
(11.042 0.355049 0)
(11.0839 0.355284 0)
(11.089 0.419714 0)
(11.1162 0.432016 0)
(11.1398 0.493305 0)
(11.149 0.524986 0)
(11.1951 0.579074 0)
(11.1821 0.634632 0)
(11.2526 0.681781 0)
(11.217 0.762643 0)
(11.3097 0.807602 0)
(11.251 0.911554 0)
(11.3634 0.96621 0)
(11.2834 1.08479 0)
(11.4039 1.16862 0)
(11.3158 1.29255 0)
(11.4244 1.41945 0)
(11.3372 1.55665 0)
(11.4279 1.71497 0)
(11.3333 1.89342 0)
(11.4023 2.06368 0)
(11.3019 2.29071 0)
(11.322 2.47665 0)
(11.2222 2.7394 0)
(11.1704 2.93951 0)
(11.0445 3.23547 0)
(10.9067 3.44273 0)
(10.0022 -0.000135181 0)
(10.0017 0.00420743 0)
(10.0109 0.00318442 0)
(10.0188 0.00755543 0)
(10.0305 0.00606356 0)
(10.0474 0.00999966 0)
(10.06 0.00841745 0)
(10.0848 0.0113618 0)
(10.0962 0.0100078 0)
(10.1272 0.0120007 0)
(10.1364 0.0113974 0)
(10.1711 0.0125457 0)
(10.1788 0.0127567 0)
(10.215 0.0131362 0)
(10.2231 0.0142967 0)
(10.259 0.0138565 0)
(10.2692 0.015899 0)
(10.3035 0.0148225 0)
(10.3168 0.0175724 0)
(10.3487 0.0163874 0)
(10.3651 0.0192082 0)
(10.3942 0.0185199 0)
(10.4134 0.0210499 0)
(10.4403 0.0211859 0)
(10.4612 0.0235908 0)
(10.4866 0.0242469 0)
(10.5088 0.0269644 0)
(10.5326 0.0279785 0)
(10.5561 0.0311207 0)
(10.5782 0.032838 0)
(10.6025 0.0363245 0)
(10.6239 0.0387201 0)
(10.6476 0.0434313 0)
(10.6686 0.0452734 0)
(10.6928 0.0530338 0)
(10.711 0.053174 0)
(10.7385 0.0645709 0)
(10.7516 0.0640566 0)
(10.7829 0.0772461 0)
(10.7922 0.0790408 0)
(10.825 0.0919035 0)
(10.8324 0.0976726 0)
(10.867 0.110391 0)
(10.8701 0.119985 0)
(10.9097 0.132878 0)
(10.9066 0.14838 0)
(10.9512 0.158349 0)
(10.9448 0.18428 0)
(10.9904 0.189517 0)
(10.9855 0.225236 0)
(11.0282 0.230832 0)
(11.0297 0.270829 0)
(11.064 0.282466 0)
(11.0798 0.324729 0)
(11.0975 0.34366 0)
(11.136 0.388874 0)
(11.1318 0.416873 0)
(11.1965 0.464317 0)
(11.1683 0.502921 0)
(11.2623 0.556038 0)
(11.207 0.602021 0)
(11.3309 0.668391 0)
(11.253 0.718743 0)
(11.3953 0.803904 0)
(11.3087 0.861815 0)
(11.4543 0.96395 0)
(11.3689 1.04552 0)
(11.5069 1.15195 0)
(11.4309 1.28007 0)
(11.5454 1.38667 0)
(11.4944 1.56138 0)
(11.5572 1.69486 0)
(11.5494 1.89741 0)
(11.5445 2.07155 0)
(11.5594 2.31442 0)
(11.5075 2.51632 0)
(11.5015 2.80111 0)
(11.4085 3.03974 0)
(11.3568 3.35579 0)
(11.2086 3.61911 0)
(10.0006 -0.00216124 0)
(10.0034 -0.000721419 0)
(10.0091 -0.00532713 0)
(10.0205 -0.00369873 0)
(10.0289 -0.00782051 0)
(10.0491 -0.00595322 0)
(10.0586 -0.00898021 0)
(10.0862 -0.00752251 0)
(10.0952 -0.00921523 0)
(10.1283 -0.00856059 0)
(10.136 -0.00876612 0)
(10.1718 -0.00920422 0)
(10.1788 -0.00817367 0)
(10.2153 -0.00951314 0)
(10.2237 -0.0074139 0)
(10.259 -0.00953154 0)
(10.2703 -0.00632218 0)
(10.3031 -0.00922145 0)
(10.3187 -0.00462173 0)
(10.3478 -0.00834643 0)
(10.3677 -0.00272085 0)
(10.393 -0.00658963 0)
(10.4166 -0.000975576 0)
(10.4392 -0.00360218 0)
(10.465 0.000953827 0)
(10.4856 0.000157339 0)
(10.5133 0.00395143 0)
(10.5314 0.00414574 0)
(10.5618 0.00861591 0)
(10.5769 0.00869259 0)
(10.6093 0.0147566 0)
(10.6232 0.0144507 0)
(10.6545 0.0224783 0)
(10.6701 0.021332 0)
(10.6986 0.0325607 0)
(10.7157 0.0295529 0)
(10.7434 0.0446441 0)
(10.7589 0.0411153 0)
(10.7882 0.0570014 0)
(10.8017 0.0579223 0)
(10.8314 0.0702253 0)
(10.8443 0.0787248 0)
(10.8743 0.0880037 0)
(10.8853 0.100968 0)
(10.9179 0.112772 0)
(10.926 0.125985 0)
(10.9596 0.142252 0)
(10.9704 0.158706 0)
(10.9981 0.174161 0)
(11.0183 0.200169 0)
(11.0364 0.212681 0)
(11.0686 0.246841 0)
(11.075 0.261961 0)
(11.1243 0.300442 0)
(11.1123 0.319884 0)
(11.1872 0.365775 0)
(11.1516 0.387273 0)
(11.2528 0.443206 0)
(11.1994 0.468275 0)
(11.3181 0.533693 0)
(11.2578 0.567435 0)
(11.3834 0.637171 0)
(11.3276 0.694447 0)
(11.4485 0.753991 0)
(11.4069 0.853908 0)
(11.516 0.89952 0)
(11.4916 1.04111 0)
(11.5851 1.09352 0)
(11.5802 1.2641 0)
(11.6525 1.34186 0)
(11.6618 1.54631 0)
(11.7205 1.65185 0)
(11.7254 1.8945 0)
(11.7635 2.05606 0)
(11.7728 2.3094 0)
(11.7601 2.55151 0)
(11.7593 2.82845 0)
(11.7061 3.12467 0)
(11.6467 3.43237 0)
(11.5482 3.80093 0)
(9.99938 -0.004106 0)
(10.0046 -0.00592488 0)
(10.0087 -0.0139403 0)
(10.0215 -0.0153865 0)
(10.0303 -0.0217221 0)
(10.0502 -0.0224693 0)
(10.0619 -0.0262211 0)
(10.0872 -0.0269534 0)
(10.1001 -0.0281396 0)
(10.1291 -0.0295821 0)
(10.1418 -0.0287117 0)
(10.1724 -0.031286 0)
(10.1849 -0.0290227 0)
(10.2163 -0.0324227 0)
(10.2294 -0.029165 0)
(10.2607 -0.0330575 0)
(10.2756 -0.0287895 0)
(10.3058 -0.0330002 0)
(10.3238 -0.0277204 0)
(10.3511 -0.0320091 0)
(10.3729 -0.0264796 0)
(10.3967 -0.0299021 0)
(10.4221 -0.0252305 0)
(10.4435 -0.0267593 0)
(10.4704 -0.0233909 0)
(10.491 -0.0231151 0)
(10.5185 -0.0202228 0)
(10.5379 -0.0190193 0)
(10.5673 -0.0156043 0)
(10.5839 -0.0138162 0)
(10.6159 -0.00985821 0)
(10.6303 -0.00701942 0)
(10.6623 -0.00264306 0)
(10.6779 0.00101557 0)
(10.7074 0.00706621 0)
(10.7243 0.0100672 0)
(10.7537 0.0193388 0)
(10.768 0.0216839 0)
(10.8003 0.0328525 0)
(10.8124 0.0378742 0)
(10.8436 0.0472925 0)
(10.8595 0.0582761 0)
(10.8848 0.0653274 0)
(10.9057 0.0813792 0)
(10.9288 0.0885812 0)
(10.9488 0.108187 0)
(10.9747 0.116317 0)
(10.9936 0.141123 0)
(11.0181 0.148466 0)
(11.0436 0.180176 0)
(11.0608 0.187938 0)
(11.0957 0.224085 0)
(11.1072 0.237532 0)
(11.1506 0.273382 0)
(11.1555 0.297759 0)
(11.2114 0.331277 0)
(11.2086 0.368884 0)
(11.2737 0.39933 0)
(11.273 0.455028 0)
(11.3378 0.478497 0)
(11.3465 0.557273 0)
(11.408 0.578856 0)
(11.4311 0.670921 0)
(11.4807 0.711104 0)
(11.5291 0.803858 0)
(11.5639 0.872204 0)
(11.6255 0.97838 0)
(11.6719 1.062 0)
(11.7145 1.20433 0)
(11.7936 1.30897 0)
(11.8085 1.47617 0)
(11.9106 1.63815 0)
(11.8987 1.82707 0)
(12.0204 2.03658 0)
(11.9624 2.29064 0)
(12.0862 2.54367 0)
(12 2.83917 0)
(12.059 3.18326 0)
(11.9602 3.50218 0)
(11.9196 3.90177 0)
(9.99966 -0.00599195 0)
(10.0042 -0.0118803 0)
(10.0101 -0.0227043 0)
(10.0218 -0.0282947 0)
(10.0343 -0.0355939 0)
(10.0518 -0.0403079 0)
(10.0687 -0.0430398 0)
(10.0898 -0.047558 0)
(10.1089 -0.0463822 0)
(10.132 -0.051598 0)
(10.1516 -0.0481349 0)
(10.1756 -0.0539529 0)
(10.1949 -0.0500552 0)
(10.2201 -0.0550995 0)
(10.2388 -0.052121 0)
(10.2661 -0.0553453 0)
(10.284 -0.0531459 0)
(10.3132 -0.0552682 0)
(10.3313 -0.0523164 0)
(10.3599 -0.0552364 0)
(10.38 -0.0502069 0)
(10.4064 -0.0545621 0)
(10.4292 -0.04795 0)
(10.454 -0.0523037 0)
(10.4776 -0.045913 0)
(10.5025 -0.0485852 0)
(10.5258 -0.0431375 0)
(10.5501 -0.0439223 0)
(10.5758 -0.0389035 0)
(10.5954 -0.0379775 0)
(10.627 -0.0336931 0)
(10.6405 -0.0299888 0)
(10.6762 -0.027341 0)
(10.6876 -0.020631 0)
(10.7227 -0.0180335 0)
(10.7351 -0.0112867 0)
(10.7696 -0.00469855 0)
(10.7809 -0.000918184 0)
(10.8171 0.010889 0)
(10.8263 0.0140053 0)
(10.8628 0.0259722 0)
(10.8737 0.0356611 0)
(10.9075 0.0418168 0)
(10.92 0.0609096 0)
(10.9552 0.064213 0)
(10.9638 0.0859605 0)
(11.0049 0.0948702 0)
(11.0101 0.114561 0)
(11.0515 0.129077 0)
(11.0636 0.151471 0)
(11.0964 0.167755 0)
(11.1203 0.193274 0)
(11.1464 0.217552 0)
(11.1774 0.238024 0)
(11.203 0.277716 0)
(11.2389 0.293088 0)
(11.2644 0.343624 0)
(11.306 0.36426 0)
(11.3355 0.415775 0)
(11.3767 0.453785 0)
(11.4182 0.499697 0)
(11.457 0.558614 0)
(11.508 0.609143 0)
(11.5522 0.675608 0)
(11.6077 0.749833 0)
(11.6607 0.823366 0)
(11.7226 0.911546 0)
(11.7819 1.02547 0)
(11.8509 1.11315 0)
(11.9238 1.26732 0)
(11.9815 1.40261 0)
(12.0822 1.56501 0)
(12.1213 1.76745 0)
(12.2228 1.98763 0)
(12.264 2.21984 0)
(12.3357 2.52234 0)
(12.3513 2.83458 0)
(12.3886 3.16639 0)
(12.3505 3.60214 0)
(12.3159 3.94803 0)
(9.99965 -0.00778494 0)
(10.0047 -0.0188329 0)
(10.0113 -0.0326483 0)
(10.0246 -0.0421555 0)
(10.0384 -0.0511578 0)
(10.0579 -0.0583046 0)
(10.076 -0.0614853 0)
(10.0983 -0.0673632 0)
(10.1183 -0.0662557 0)
(10.1414 -0.0722129 0)
(10.1621 -0.0693754 0)
(10.185 -0.0750737 0)
(10.206 -0.072908 0)
(10.2299 -0.0765177 0)
(10.2502 -0.0764227 0)
(10.2771 -0.076867 0)
(10.295 -0.0782894 0)
(10.326 -0.0770111 0)
(10.3414 -0.0778122 0)
(10.3745 -0.0773757 0)
(10.3898 -0.0758882 0)
(10.4217 -0.0769579 0)
(10.4396 -0.0738758 0)
(10.4695 -0.0747594 0)
(10.4886 -0.0720783 0)
(10.5186 -0.0711042 0)
(10.5374 -0.0693043 0)
(10.5669 -0.0665161 0)
(10.5881 -0.0648785 0)
(10.6128 -0.0606188 0)
(10.6403 -0.0593513 0)
(10.6586 -0.0527144 0)
(10.69 -0.0524874 0)
(10.7075 -0.0435535 0)
(10.7362 -0.0426081 0)
(10.7574 -0.0342617 0)
(10.7839 -0.0290036 0)
(10.8032 -0.0236593 0)
(10.8355 -0.0133573 0)
(10.8466 -0.00916586 0)
(10.886 0.00345462 0)
(10.8938 0.00949646 0)
(10.9317 0.0232017 0)
(10.9448 0.0306514 0)
(10.9774 0.0480951 0)
(10.994 0.0543125 0)
(11.0278 0.0776888 0)
(11.0422 0.0833702 0)
(11.079 0.109284 0)
(11.0957 0.121774 0)
(11.1295 0.142248 0)
(11.1536 0.168771 0)
(11.1849 0.181521 0)
(11.2126 0.220398 0)
(11.247 0.231447 0)
(11.2785 0.27808 0)
(11.3118 0.291263 0)
(11.3547 0.344842 0)
(11.3833 0.364767 0)
(11.4399 0.419521 0)
(11.465 0.45554 0)
(11.5375 0.511411 0)
(11.5585 0.555505 0)
(11.6467 0.636421 0)
(11.6745 0.669051 0)
(11.7643 0.787792 0)
(11.8151 0.827288 0)
(11.901 0.960265 0)
(11.9799 1.03381 0)
(12.0519 1.20018 0)
(12.1773 1.2817 0)
(12.2267 1.51953 0)
(12.3736 1.64068 0)
(12.4387 1.90695 0)
(12.5555 2.15274 0)
(12.6357 2.42464 0)
(12.7163 2.81108 0)
(12.7651 3.13712 0)
(12.7796 3.60976 0)
(12.7663 4.06564 0)
(9.99865 -0.0102233 0)
(10.0067 -0.0269414 0)
(10.0127 -0.0450618 0)
(10.0307 -0.0574786 0)
(10.0443 -0.0693213 0)
(10.0689 -0.0767603 0)
(10.0862 -0.0814825 0)
(10.1126 -0.0870468 0)
(10.131 -0.0864392 0)
(10.1565 -0.0934776 0)
(10.1762 -0.0896755 0)
(10.1994 -0.0980353 0)
(10.2215 -0.0939811 0)
(10.2438 -0.0999586 0)
(10.2672 -0.0992166 0)
(10.2914 -0.0991409 0)
(10.3128 -0.103396 0)
(10.3414 -0.0976782 0)
(10.3591 -0.10479 0)
(10.3912 -0.0973579 0)
(10.4075 -0.103455 0)
(10.4394 -0.097505 0)
(10.4575 -0.10083 0)
(10.4881 -0.0967691 0)
(10.5063 -0.0974872 0)
(10.5391 -0.0954593 0)
(10.5539 -0.0920954 0)
(10.5901 -0.0938934 0)
(10.6039 -0.0848243 0)
(10.6372 -0.0901263 0)
(10.6575 -0.0782451 0)
(10.6825 -0.0818411 0)
(10.7097 -0.0727758 0)
(10.7314 -0.0704663 0)
(10.7573 -0.0650529 0)
(10.783 -0.0592588 0)
(10.8048 -0.052428 0)
(10.8318 -0.0485794 0)
(10.8557 -0.0357817 0)
(10.8784 -0.0355864 0)
(10.9057 -0.0177426 0)
(10.9292 -0.0173954 0)
(10.9508 0.000578091 0)
(10.984 0.00628778 0)
(10.9966 0.0210312 0)
(11.0356 0.0338523 0)
(11.0498 0.0455893 0)
(11.0836 0.0652092 0)
(11.1067 0.0741916 0)
(11.1363 0.102263 0)
(11.1628 0.106793 0)
(11.1943 0.144933 0)
(11.2239 0.147936 0)
(11.2542 0.186903 0)
(11.2925 0.206724 0)
(11.3211 0.226029 0)
(11.3645 0.278356 0)
(11.4012 0.278656 0)
(11.4406 0.347016 0)
(11.4955 0.357897 0)
(11.5273 0.417229 0)
(11.6006 0.454464 0)
(11.6353 0.508034 0)
(11.7127 0.561427 0)
(11.7734 0.627535 0)
(11.8353 0.691769 0)
(11.9428 0.76809 0)
(11.9823 0.870384 0)
(12.1358 0.946695 0)
(12.1719 1.07883 0)
(12.36 1.22155 0)
(12.3823 1.33128 0)
(12.6425 1.59043 0)
(12.6163 1.71846 0)
(12.925 2.05608 0)
(12.8983 2.30608 0)
(13.1493 2.68797 0)
(13.1634 3.10469 0)
(13.2807 3.5697 0)
(13.2815 4.09985 0)
(9.99852 -0.0135081 0)
(10.0087 -0.0378861 0)
(10.0173 -0.0605653 0)
(10.0389 -0.0767264 0)
(10.0567 -0.090129 0)
(10.0838 -0.0979513 0)
(10.1047 -0.102872 0)
(10.1306 -0.108587 0)
(10.1524 -0.10746 0)
(10.1744 -0.116554 0)
(10.1992 -0.110616 0)
(10.2165 -0.123188 0)
(10.2464 -0.114968 0)
(10.2605 -0.126247 0)
(10.2939 -0.120357 0)
(10.3086 -0.125505 0)
(10.3401 -0.125018 0)
(10.3602 -0.123814 0)
(10.3857 -0.127005 0)
(10.4124 -0.123336 0)
(10.4323 -0.126254 0)
(10.4635 -0.123263 0)
(10.4803 -0.124275 0)
(10.5151 -0.122206 0)
(10.5273 -0.121385 0)
(10.5684 -0.12094 0)
(10.5741 -0.115652 0)
(10.6205 -0.120205 0)
(10.6248 -0.107389 0)
(10.6669 -0.11719 0)
(10.6805 -0.100607 0)
(10.711 -0.108099 0)
(10.7344 -0.0967001 0)
(10.7602 -0.0945111 0)
(10.7815 -0.0911235 0)
(10.8146 -0.0813252 0)
(10.8267 -0.0799973 0)
(10.8663 -0.0692335 0)
(10.877 -0.0645305 0)
(10.9126 -0.0553593 0)
(10.9305 -0.0467113 0)
(10.9588 -0.038136 0)
(10.9824 -0.0264905 0)
(11.0078 -0.0178612 0)
(11.0345 -0.00225997 0)
(11.0567 0.00393812 0)
(11.0902 0.0281196 0)
(11.1061 0.0260461 0)
(11.1476 0.0657706 0)
(11.161 0.0501764 0)
(11.2055 0.106644 0)
(11.2222 0.083648 0)
(11.2663 0.146201 0)
(11.2901 0.129394 0)
(11.3323 0.187571 0)
(11.3655 0.184108 0)
(11.4066 0.235868 0)
(11.4477 0.247658 0)
(11.4952 0.291507 0)
(11.5378 0.322206 0)
(11.6009 0.358471 0)
(11.6421 0.408293 0)
(11.7207 0.438867 0)
(11.7736 0.512629 0)
(11.8538 0.543176 0)
(11.9289 0.618303 0)
(12.0344 0.708249 0)
(12.0873 0.723674 0)
(12.2734 0.910562 0)
(12.2857 0.921528 0)
(12.5355 1.09928 0)
(12.5718 1.22999 0)
(12.8233 1.37262 0)
(12.9196 1.62895 0)
(13.171 1.80916 0)
(13.2998 2.18701 0)
(13.5306 2.49455 0)
(13.6634 2.99459 0)
(13.8012 3.50405 0)
(13.9104 4.11844 0)
(9.99776 -0.0189949 0)
(10.0128 -0.0520197 0)
(10.0257 -0.0810638 0)
(10.0529 -0.0996214 0)
(10.078 -0.115247 0)
(10.1052 -0.121344 0)
(10.1348 -0.128236 0)
(10.153 -0.132041 0)
(10.1864 -0.133514 0)
(10.1954 -0.142472 0)
(10.2343 -0.137205 0)
(10.2377 -0.152117 0)
(10.2808 -0.140735 0)
(10.2849 -0.157045 0)
(10.3256 -0.145112 0)
(10.3376 -0.156843 0)
(10.3675 -0.149892 0)
(10.3934 -0.154586 0)
(10.4082 -0.153182 0)
(10.4486 -0.152462 0)
(10.4506 -0.154933 0)
(10.501 -0.149199 0)
(10.4958 -0.156909 0)
(10.5513 -0.143681 0)
(10.5418 -0.158094 0)
(10.6006 -0.139144 0)
(10.589 -0.153413 0)
(10.6467 -0.139287 0)
(10.6404 -0.141912 0)
(10.6864 -0.140307 0)
(10.6966 -0.130776 0)
(10.7229 -0.134083 0)
(10.751 -0.125197 0)
(10.7639 -0.120311 0)
(10.7983 -0.120238 0)
(10.8096 -0.105814 0)
(10.8433 -0.110033 0)
(10.8525 -0.0923517 0)
(10.8927 -0.0960454 0)
(10.8908 -0.076413 0)
(10.9433 -0.0803115 0)
(10.9326 -0.0580389 0)
(10.9876 -0.0599428 0)
(10.9828 -0.0403495 0)
(11.0277 -0.032884 0)
(11.0362 -0.0220519 0)
(11.0709 -0.00363679 0)
(11.0917 0.00313594 0)
(11.1162 0.0229242 0)
(11.1532 0.0378999 0)
(11.1647 0.0475955 0)
(11.2198 0.0820384 0)
(11.2222 0.0702307 0)
(11.2885 0.136943 0)
(11.2946 0.0980128 0)
(11.3585 0.187376 0)
(11.3844 0.152389 0)
(11.4351 0.22455 0)
(11.4859 0.22589 0)
(11.5343 0.271899 0)
(11.5948 0.300044 0)
(11.6547 0.335412 0)
(11.7331 0.384726 0)
(11.7845 0.414639 0)
(11.9071 0.476452 0)
(11.9471 0.524469 0)
(12.1027 0.585752 0)
(12.1627 0.662124 0)
(12.3385 0.720085 0)
(12.4358 0.855453 0)
(12.6097 0.895395 0)
(12.7901 1.09215 0)
(12.9799 1.17299 0)
(13.183 1.40089 0)
(13.4676 1.60041 0)
(13.667 1.89827 0)
(13.9818 2.25933 0)
(14.2249 2.75636 0)
(14.4112 3.30672 0)
(14.6363 4.09669 0)
(9.99633 -0.0271233 0)
(10.0206 -0.0691762 0)
(10.0405 -0.0998963 0)
(10.0766 -0.116797 0)
(10.1096 -0.126533 0)