/*--------------------------------*- C++ -*----------------------------------*\
| =========                 |                                                 |
| \\      /  F ield         | foam-extend: Open Source CFD                    |
|  \\    /   O peration     | Version:     5.0                                |
|   \\  /    A nd           | Web:         http://www.foam-extend.org         |
|    \\/     M anipulation  |                                                 |
\*---------------------------------------------------------------------------*/
FoamFile
{
    version     2.0;
    format      ascii;
    class       volScalarField;
    location    "0";
    object      T;
}
// * * * * * * * * * * * * * * * * * * * * * * * * * * * * * * * * * * * * * //

dimensions      [0 0 0 1 0 0 0];

internalField   nonuniform List<scalar> 
9 
(
    1 
    2 
    3 
    4 
    5 
    6 
    7 
    8
    9
)
;

boundaryField
{
    "left|right|top|bottom"
    {
        type            newBoundaryCondition;
        value           uniform 10;
    }

    frontAndBack
    {
        type            empty;
    }
}


// ************************************************************************* //
