/*--------------------------------*- C++ -*----------------------------------*\
| =========                 |                                                 |
| \\      /  F ield         | foam-extend: Open Source CFD                    |
|  \\    /   O peration     | Version:     5.0                                |
|   \\  /    A nd           | Web:         http://www.foam-extend.org         |
|    \\/     M anipulation  |                                                 |
\*---------------------------------------------------------------------------*/
FoamFile
{
    version     2.0;
    format      ascii;
    class       volVectorField;
    location    "0";
    object      U;
}
// * * * * * * * * * * * * * * * * * * * * * * * * * * * * * * * * * * * * * //

dimensions      [0 1 -1 0 0 0 0];

internalField   nonuniform List<vector> 
9 
(
    (1 1 1) 
    (2 2 2)  
    (3 3 3) 
    (4 4 4) 
    (5 5 5) 
    (6 6 6)  
    (7 7 7) 
    (8 8 8) 
    (9 9 9) 
)
;

boundaryField
{
    left
    {
        type            fixedValue;
        value           uniform (10 10 0);
    }
    right
    {
        type            fixedValue;
        value           uniform (11 11 0);
    }
    frontAndBack
    {
        type            empty;
    }

    top
    {
        type            fixedValue;
        value           uniform (12 12 0);
    }
    bottom
    {
        type            fixedValue;
        value           uniform (13 13 0);
    }
}


// ************************************************************************* //
