/*--------------------------------*- C++ -*----------------------------------*\
| =========                 |                                                 |
| \\      /  F ield         | OpenFOAM: The Open Source CFD Toolbox           |
|  \\    /   O peration     | Version:  2306                                  |
|   \\  /    A nd           | Website:  www.openfoam.com                      |
|    \\/     M anipulation  |                                                 |
\*---------------------------------------------------------------------------*/
FoamFile
{
    version     2.0;
    format      ascii;
    arch        "LSB;label=32;scalar=64";
    class       volScalarField;
    location    "0.35";
    object      p;
}
// * * * * * * * * * * * * * * * * * * * * * * * * * * * * * * * * * * * * * //

dimensions      [0 2 -2 0 0 0 0];

internalField   nonuniform List<scalar> 
17600
(
478.262
476.219
474.441
473.211
472.447
471.941
471.523
471.116
470.698
470.275
469.855
469.443
469.039
468.642
468.25
467.863
467.483
467.11
466.749
466.402
466.074
465.767
465.483
465.224
464.991
464.783
464.601
464.442
464.304
464.185
464.082
463.993
463.914
463.843
463.778
463.717
463.658
463.601
463.543
463.485
463.426
463.366
463.303
463.24
463.174
463.107
463.039
462.969
462.899
462.827
462.756
462.683
462.611
462.538
462.466
462.394
462.322
462.251
462.181
462.111
462.042
461.974
461.906
461.84
461.775
461.711
461.648
461.587
461.527
461.468
461.41
461.354
461.299
461.246
461.194
461.144
461.096
461.049
461.004
460.961
460.92
460.881
460.843
460.808
460.775
460.745
460.717
460.691
460.668
460.647
460.629
460.615
460.603
460.594
460.588
460.586
460.587
460.592
460.601
460.613
460.63
460.65
460.675
460.705
460.739
460.778
460.821
460.87
460.924
460.983
461.047
461.117
461.192
461.274
461.36
461.453
461.551
461.655
461.765
461.88
462.001
462.127
462.258
462.394
462.535
462.68
462.829
462.981
463.137
463.295
463.455
463.616
463.777
463.939
464.1
464.259
464.417
464.572
464.724
464.872
465.017
465.157
465.291
465.421
465.545
465.663
465.776
465.883
465.985
466.081
466.173
466.26
466.341
466.418
466.491
466.56
466.625
466.686
466.745
466.8
475.533
474.763
473.837
472.973
472.282
471.76
471.339
470.957
470.577
470.189
469.794
469.4
469.01
468.626
468.247
467.873
467.505
467.145
466.796
466.461
466.143
465.843
465.565
465.31
465.078
464.87
464.686
464.524
464.382
464.259
464.151
464.056
463.972
463.896
463.826
463.76
463.696
463.635
463.574
463.512
463.45
463.387
463.323
463.258
463.191
463.122
463.053
462.982
462.911
462.839
462.766
462.694
462.621
462.548
462.475
462.403
462.331
462.259
462.189
462.119
462.049
461.981
461.914
461.847
461.782
461.718
461.655
461.593
461.533
461.474
461.416
461.36
461.305
461.252
461.2
461.15
461.101
461.054
461.01
460.966
460.925
460.886
460.849
460.814
460.781
460.75
460.722
460.696
460.673
460.653
460.635
460.62
460.608
460.6
460.594
460.592
460.593
460.598
460.607
460.62
460.637
460.657
460.683
460.712
460.747
460.786
460.83
460.879
460.933
460.993
461.058
461.128
461.204
461.286
461.373
461.467
461.566
461.67
461.781
461.897
462.019
462.146
462.278
462.415
462.557
462.703
462.853
463.006
463.162
463.32
463.481
463.642
463.803
463.965
464.125
464.284
464.44
464.594
464.745
464.892
465.035
465.174
465.308
465.437
465.56
465.678
465.789
465.895
465.996
466.091
466.181
466.267
466.347
466.423
466.495
466.563
466.628
466.689
466.746
466.801
474.229
473.879
473.35
472.738
472.146
471.632
471.199
470.819
470.458
470.097
469.729
469.357
468.985
468.618
468.255
467.899
467.55
467.21
466.879
466.561
466.258
465.971
465.702
465.452
465.224
465.016
464.828
464.661
464.511
464.378
464.26
464.155
464.06
463.973
463.894
463.819
463.748
463.678
463.61
463.543
463.476
463.408
463.34
463.271
463.202
463.132
463.061
462.989
462.917
462.844
462.771
462.698
462.625
462.552
462.479
462.406
462.334
462.263
462.192
462.122
462.052
461.984
461.916
461.85
461.784
461.72
461.657
461.595
461.534
461.475
461.417
461.36
461.305
461.251
461.199
461.149
461.1
461.053
461.007
460.964
460.922
460.882
460.845
460.809
460.776
460.745
460.716
460.69
460.666
460.645
460.627
460.611
460.599
460.589
460.583
460.58
460.581
460.585
460.593
460.605
460.621
460.641
460.665
460.694
460.727
460.765
460.808
460.857
460.91
460.968
461.032
461.102
461.177
461.258
461.345
461.437
461.535
461.64
461.75
461.865
461.987
462.114
462.246
462.384
462.526
462.673
462.824
462.979
463.136
463.297
463.459
463.623
463.788
463.952
464.116
464.278
464.439
464.596
464.75
464.9
465.045
465.185
465.32
465.449
465.571
465.687
465.798
465.904
466.004
466.1
466.191
466.276
466.357
466.432
466.503
466.571
466.634
466.694
466.751
466.806
473.325
473.133
472.8
472.365
471.89
471.434
471.023
470.655
470.312
469.975
469.635
469.29
468.942
468.596
468.253
467.917
467.588
467.267
466.955
466.654
466.365
466.091
465.832
465.591
465.367
465.16
464.972
464.801
464.647
464.507
464.381
464.266
464.162
464.066
463.977
463.893
463.813
463.736
463.661
463.587
463.514
463.442
463.369
463.297
463.224
463.152
463.078
463.005
462.931
462.857
462.783
462.708
462.634
462.56
462.487
462.413
462.341
462.269
462.197
462.127
462.057
461.988
461.92
461.853
461.787
461.722
461.658
461.596
461.534
461.474
461.416
461.358
461.303
461.248
461.196
461.144
461.095
461.047
461
460.956
460.913
460.873
460.834
460.798
460.763
460.731
460.701
460.674
460.649
460.626
460.606
460.59
460.576
460.565
460.557
460.552
460.551
460.553
460.559
460.569
460.583
460.601
460.623
460.649
460.68
460.716
460.756
460.802
460.852
460.908
460.969
461.036
461.108
461.186
461.269
461.359
461.454
461.555
461.663
461.776
461.895
462.019
462.149
462.285
462.426
462.571
462.721
462.876
463.034
463.195
463.359
463.525
463.693
463.861
464.03
464.197
464.363
464.528
464.689
464.846
465
465.148
465.292
465.429
465.56
465.684
465.801
465.91
466.013
466.109
466.198
466.283
466.362
466.437
466.51
466.578
466.643
466.703
466.759
466.813
472.639
472.514
472.286
471.969
471.598
471.213
470.842
470.497
470.172
469.856
469.54
469.22
468.896
468.571
468.249
467.932
467.621
467.317
467.022
466.737
466.462
466.199
465.95
465.716
465.496
465.293
465.105
464.932
464.773
464.629
464.496
464.374
464.262
464.158
464.06
463.968
463.881
463.796
463.715
463.635
463.556
463.479
463.402
463.326
463.25
463.174
463.099
463.023
462.947
462.871
462.795
462.72
462.645
462.57
462.495
462.421
462.348
462.275
462.203
462.132
462.061
461.991
461.923
461.855
461.788
461.723
461.659
461.595
461.533
461.473
461.413
461.355
461.298
461.243
461.189
461.137
461.086
461.037
460.99
460.944
460.9
460.858
460.818
460.78
460.744
460.71
460.678
460.649
460.622
460.598
460.576
460.557
460.541
460.527
460.517
460.509
460.506
460.505
460.508
460.514
460.525
460.539
460.557
460.58
460.607
460.638
460.674
460.715
460.761
460.811
460.867
460.929
460.995
461.068
461.145
461.229
461.318
461.413
461.514
461.621
461.734
461.852
461.976
462.106
462.241
462.381
462.526
462.676
462.83
462.988
463.15
463.314
463.48
463.649
463.819
463.989
464.16
464.33
464.498
464.665
464.829
464.99
465.147
465.299
465.445
465.585
465.718
465.844
465.963
466.074
466.178
466.274
466.363
466.443
466.516
466.583
466.645
466.705
466.763
466.819
472.092
472.002
471.835
471.597
471.306
470.986
470.66
470.344
470.039
469.743
469.447
469.149
468.847
468.544
468.241
467.942
467.647
467.359
467.079
466.807
466.544
466.292
466.052
465.824
465.609
465.409
465.221
465.047
464.886
464.737
464.599
464.472
464.353
464.242
464.137
464.039
463.944
463.854
463.766
463.681
463.597
463.516
463.435
463.355
463.276
463.197
463.119
463.041
462.963
462.885
462.808
462.731
462.655
462.579
462.503
462.429
462.354
462.281
462.208
462.136
462.065
461.994
461.925
461.857
461.789
461.723
461.658
461.594
461.531
461.469
461.409
461.35
461.292
461.235
461.181
461.127
461.075
461.025
460.976
460.929
460.883
460.84
460.798
460.758
460.72
460.684
460.65
460.619
460.59
460.563
460.538
460.516
460.497
460.481
460.467
460.456
460.449
460.444
460.443
460.446
460.452
460.461
460.475
460.492
460.514
460.539
460.57
460.604
460.643
460.687
460.736
460.79
460.849
460.913
460.982
461.057
461.138
461.224
461.315
461.412
461.515
461.623
461.737
461.856
461.981
462.111
462.246
462.386
462.531
462.68
462.833
462.99
463.15
463.313
463.479
463.647
463.817
463.987
464.159
464.33
464.501
464.671
464.839
465.004
465.167
465.326
465.48
465.629
465.773
465.91
466.04
466.162
466.275
466.379
466.474
466.56
466.638
466.707
466.767
466.822
471.643
471.575
471.446
471.261
471.028
470.761
470.479
470.193
469.911
469.634
469.357
469.078
468.796
468.512
468.227
467.945
467.666
467.392
467.125
466.865
466.613
466.37
466.138
465.916
465.706
465.508
465.322
465.148
464.985
464.833
464.691
464.559
464.435
464.318
464.208
464.103
464.003
463.907
463.814
463.724
463.636
463.55
463.466
463.383
463.3
463.219
463.138
463.058
462.978
462.899
462.82
462.742
462.664
462.587
462.511
462.435
462.36
462.286
462.212
462.139
462.067
461.996
461.926
461.857
461.789
461.722
461.656
461.591
461.527
461.464
461.403
461.343
461.284
461.226
461.17
461.115
461.062
461.01
460.96
460.911
460.864
460.818
460.775
460.733
460.693
460.655
460.619
460.585
460.553
460.523
460.496
460.471
460.448
460.429
460.411
460.397
460.385
460.377
460.371
460.369
460.37
460.374
460.382
460.393
460.409
460.428
460.451
460.478
460.51
460.546
460.586
460.631
460.681
460.735
460.795
460.859
460.928
461.003
461.082
461.167
461.257
461.352
461.453
461.558
461.669
461.785
461.906
462.031
462.162
462.297
462.436
462.579
462.727
462.878
463.032
463.19
463.351
463.515
463.681
463.849
464.019
464.191
464.363
464.536
464.709
464.882
465.054
465.224
465.391
465.555
465.715
465.87
466.018
466.16
466.292
466.415
466.527
466.628
466.718
466.797
471.268
471.214
471.111
470.962
470.77
470.547
470.302
470.046
469.787
469.528
469.269
469.008
468.744
468.477
468.209
467.942
467.677
467.416
467.161
466.912
466.67
466.436
466.211
465.995
465.79
465.594
465.41
465.236
465.072
464.918
464.773
464.636
464.508
464.387
464.271
464.162
464.057
463.956
463.859
463.765
463.673
463.583
463.495
463.409
463.324
463.24
463.156
463.074
462.993
462.912
462.832
462.752
462.673
462.595
462.518
462.441
462.365
462.29
462.215
462.142
462.069
461.997
461.926
461.856
461.787
461.719
461.653
461.587
461.522
461.458
461.396
461.335
461.274
461.216
461.158
461.102
461.047
460.994
460.942
460.892
460.843
460.795
460.75
460.706
460.664
460.623
460.585
460.548
460.513
460.481
460.451
460.422
460.397
460.373
460.352
460.333
460.318
460.304
460.294
460.287
460.282
460.281
460.283
460.288
460.297
460.309
460.325
460.344
460.367
460.395
460.426
460.461
460.501
460.545
460.593
460.646
460.703
460.764
460.831
460.902
460.977
461.058
461.143
461.232
461.326
461.425
461.529
461.637
461.749
461.866
461.987
462.112
462.241
462.375
462.512
462.653
462.799
462.948
463.1
463.256
463.416
463.58
463.747
463.917
464.091
464.268
464.447
464.628
464.812
464.996
465.181
465.365
465.548
465.727
465.901
466.07
466.23
466.38
466.519
466.645
470.952
470.907
470.822
470.698
470.537
470.346
470.133
469.904
469.668
469.428
469.185
468.939
468.691
468.44
468.187
467.934
467.683
467.434
467.19
466.951
466.718
466.491
466.273
466.063
465.861
465.669
465.486
465.312
465.148
464.992
464.845
464.706
464.574
464.448
464.329
464.215
464.106
464.001
463.9
463.802
463.707
463.614
463.523
463.433
463.346
463.259
463.174
463.09
463.006
462.924
462.842
462.761
462.681
462.602
462.524
462.446
462.369
462.293
462.218
462.143
462.07
461.997
461.926
461.855
461.785
461.716
461.648
461.581
461.516
461.451
461.387
461.325
461.264
461.204
461.145
461.087
461.031
460.976
460.923
460.871
460.82
460.771
460.723
460.677
460.633
460.59
460.549
460.509
460.472
460.437
460.403
460.372
460.342
460.315
460.29
460.267
460.247
460.229
460.214
460.201
460.191
460.184
460.18
460.179
460.18
460.185
460.193
460.205
460.22
460.238
460.26
460.285
460.314
460.347
460.383
460.424
460.468
460.517
460.569
460.625
460.685
460.75
460.818
460.891
460.967
461.047
461.132
461.22
461.312
461.408
461.509
461.613
461.72
461.832
461.948
462.068
462.192
462.32
462.452
462.59
462.731
462.878
463.03
463.188
463.351
463.52
463.695
463.876
464.063
464.255
464.453
464.656
464.862
465.071
465.282
465.492
465.699
465.901
466.097
466.282
470.682
470.645
470.572
470.466
470.329
470.163
469.975
469.77
469.555
469.332
469.105
468.874
468.64
468.403
468.164
467.924
467.684
467.447
467.212
466.982
466.757
466.538
466.325
466.12
465.923
465.733
465.552
465.379
465.214
465.057
464.908
464.767
464.632
464.504
464.381
464.264
464.151
464.043
463.938
463.836
463.738
463.642
463.548
463.456
463.366
463.277
463.19
463.104
463.019
462.935
462.852
462.77
462.689
462.608
462.529
462.45
462.372
462.295
462.219
462.144
462.07
461.996
461.924
461.852
461.781
461.711
461.643
461.575
461.508
461.443
461.378
461.314
461.252
461.191
461.13
461.072
461.014
460.957
460.902
460.848
460.796
460.745
460.695
460.647
460.6
460.555
460.511
460.469
460.429
460.39
460.354
460.319
460.286
460.255
460.226
460.199
460.174
460.151
460.131
460.113
460.098
460.085
460.074
460.066
460.061
460.059
460.059
460.062
460.068
460.077
460.089
460.105
460.123
460.145
460.169
460.197
460.229
460.263
460.301
460.342
460.387
460.435
460.486
460.541
460.599
460.66
460.724
460.792
460.863
460.937
461.015
461.096
461.18
461.268
461.359
461.455
461.554
461.657
461.765
461.878
461.996
462.12
462.25
462.386
462.53
462.681
462.841
463.009
463.187
463.374
463.571
463.777
463.993
464.218
464.451
464.69
464.934
465.18
465.427
465.669
470.452
470.419
470.357
470.265
470.144
469.999
469.831
469.646
469.449
469.243
469.031
468.813
468.592
468.367
468.14
467.911
467.682
467.455
467.229
467.007
466.789
466.577
466.37
466.169
465.975
465.788
465.608
465.436
465.272
465.114
464.964
464.821
464.684
464.553
464.427
464.307
464.191
464.08
463.972
463.868
463.766
463.667
463.571
463.477
463.384
463.294
463.204
463.117
463.03
462.945
462.86
462.777
462.695
462.613
462.533
462.453
462.374
462.297
462.22
462.144
462.068
461.994
461.921
461.848
461.777
461.706
461.636
461.568
461.5
461.433
461.367
461.303
461.239
461.176
461.115
461.054
460.995
460.937
460.88
460.825
460.77
460.717
460.665
460.615
460.566
460.518
460.472
460.427
460.384
460.342
460.303
460.264
460.228
460.193
460.16
460.128
460.099
460.072
460.047
460.023
460.002
459.983
459.966
459.952
459.939
459.929
459.922
459.917
459.914
459.914
459.916
459.921
459.929
459.939
459.952
459.967
459.985
460.006
460.03
460.056
460.084
460.116
460.15
460.186
460.225
460.267
460.311
460.357
460.406
460.458
460.512
460.569
460.629
460.691
460.757
460.826
460.898
460.974
461.055
461.14
461.23
461.326
461.429
461.539
461.657
461.783
461.919
462.066
462.224
462.395
462.578
462.774
462.985
463.21
463.448
463.7
463.964
464.239
464.522
464.811
470.256
470.227
470.172
470.09
469.983
469.853
469.702
469.534
469.353
469.161
468.962
468.757
468.547
468.333
468.116
467.898
467.678
467.459
467.242
467.027
466.816
466.609
466.407
466.21
466.019
465.835
465.657
465.486
465.321
465.164
465.012
464.868
464.729
464.596
464.468
464.345
464.227
464.113
464.002
463.895
463.791
463.69
463.592
463.495
463.401
463.308
463.217
463.128
463.04
462.953
462.867
462.783
462.7
462.617
462.536
462.455
462.376
462.297
462.219
462.142
462.066
461.991
461.917
461.843
461.771
461.699
461.629
461.559
461.49
461.422
461.356
461.29
461.225
461.161
461.098
461.036
460.975
460.916
460.857
460.8
460.744
460.688
460.635
460.582
460.53
460.48
460.431
460.384
460.338
460.293
460.25
460.208
460.168
460.129
460.092
460.057
460.023
459.99
459.96
459.931
459.904
459.879
459.856
459.835
459.816
459.798
459.783
459.769
459.758
459.748
459.741
459.736
459.732
459.731
459.732
459.735
459.74
459.747
459.756
459.766
459.779
459.794
459.81
459.828
459.848
459.87
459.893
459.918
459.945
459.974
460.004
460.036
460.07
460.107
460.145
460.187
460.231
460.278
460.329
460.384
460.444
460.51
460.582
460.661
460.749
460.846
460.953
461.071
461.202
461.347
461.507
461.684
461.877
462.089
462.319
462.567
462.835
463.12
463.422
463.738
470.089
470.063
470.013
469.94
469.843
469.725
469.588
469.433
469.266
469.087
468.899
468.705
468.505
468.301
468.094
467.884
467.673
467.462
467.251
467.043
466.837
466.635
466.437
466.244
466.056
465.874
465.698
465.528
465.364
465.206
465.054
464.908
464.768
464.633
464.503
464.378
464.258
464.141
464.029
463.92
463.814
463.71
463.61
463.511
463.415
463.321
463.229
463.138
463.048
462.96
462.873
462.788
462.703
462.62
462.538
462.456
462.376
462.296
462.218
462.14
462.063
461.987
461.912
461.838
461.764
461.692
461.62
461.55
461.48
461.411
461.343
461.276
461.21
461.144
461.08
461.017
460.955
460.893
460.833
460.774
460.716
460.659
460.603
460.548
460.494
460.441
460.39
460.339
460.29
460.243
460.196
460.151
460.107
460.064
460.023
459.983
459.945
459.908
459.872
459.838
459.805
459.774
459.745
459.717
459.69
459.665
459.642
459.62
459.6
459.581
459.564
459.548
459.534
459.522
459.51
459.501
459.492
459.485
459.48
459.475
459.472
459.469
459.468
459.468
459.469
459.471
459.473
459.477
459.481
459.486
459.492
459.499
459.507
459.517
459.528
459.54
459.555
459.572
459.592
459.616
459.644
459.677
459.716
459.762
459.816
459.879
459.953
460.038
460.137
460.251
460.381
460.529
460.696
460.885
461.095
461.328
461.585
461.865
462.169
462.495
469.948
469.924
469.879
469.812
469.724
469.615
469.489
469.346
469.189
469.021
468.843
468.658
468.468
468.272
468.072
467.87
467.666
467.462
467.258
467.055
466.854
466.656
466.462
466.273
466.087
465.907
465.732
465.563
465.399
465.241
465.089
464.942
464.801
464.665
464.533
464.407
464.284
464.166
464.052
463.941
463.833
463.728
463.625
463.525
463.428
463.332
463.238
463.146
463.055
462.966
462.878
462.791
462.706
462.622
462.538
462.456
462.375
462.294
462.215
462.136
462.059
461.982
461.906
461.831
461.757
461.683
461.611
461.539
461.468
461.398
461.329
461.261
461.193
461.127
461.061
460.997
460.933
460.87
460.808
460.747
460.687
460.628
460.569
460.512
460.456
460.401
460.347
460.294
460.242
460.191
460.141
460.092
460.044
459.998
459.953
459.908
459.865
459.823
459.783
459.743
459.705
459.668
459.632
459.597
459.563
459.531
459.499
459.469
459.44
459.412
459.385
459.359
459.335
459.31
459.287
459.265
459.243
459.222
459.202
459.182
459.163
459.144
459.125
459.106
459.088
459.07
459.051
459.033
459.014
458.996
458.977
458.958
458.94
458.922
458.904
458.888
458.872
458.858
458.846
458.837
458.831
458.829
458.833
458.844
458.861
458.888
458.925
458.974
459.036
459.114
459.209
459.323
459.458
459.616
459.798
460.007
460.242
460.506
460.799
461.121
469.831
469.809
469.767
469.705
469.623
469.523
469.404
469.27
469.123
468.964
468.795
468.618
468.435
468.246
468.053
467.858
467.66
467.461
467.262
467.064
466.867
466.673
466.483
466.295
466.112
465.934
465.76
465.592
465.429
465.271
465.118
464.971
464.829
464.691
464.559
464.431
464.307
464.187
464.071
463.958
463.849
463.742
463.638
463.537
463.438
463.341
463.245
463.152
463.06
462.97
462.881
462.794
462.707
462.622
462.538
462.455
462.373
462.292
462.211
462.132
462.054
461.976
461.899
461.823
461.748
461.674
461.6
461.528
461.456
461.385
461.315
461.245
461.176
461.109
461.042
460.975
460.91
460.845
460.782
460.719
460.657
460.596
460.535
460.476
460.417
460.36
460.303
460.247
460.192
460.138
460.085
460.032
459.981
459.931
459.881
459.833
459.785
459.738
459.692
459.647
459.603
459.56
459.518
459.476
459.435
459.395
459.356
459.318
459.28
459.243
459.206
459.17
459.134
459.098
459.063
459.028
458.994
458.959
458.924
458.889
458.853
458.817
458.781
458.744
458.706
458.667
458.628
458.587
458.546
458.503
458.46
458.415
458.369
458.323
458.276
458.229
458.183
458.136
458.091
458.047
458.006
457.968
457.935
457.907
457.886
457.874
457.871
457.88
457.903
457.941
457.997
458.072
458.17
458.292
458.44
458.617
458.824
459.063
459.335
459.642
469.736
469.716
469.676
469.618
469.541
469.446
469.335
469.208
469.067
468.916
468.754
468.583
468.406
468.224
468.037
467.846
467.654
467.459
467.265
467.07
466.878
466.687
466.499
466.314
466.133
465.956
465.783
465.615
465.452
465.295
465.142
464.994
464.851
464.713
464.579
464.45
464.325
464.204
464.086
463.972
463.861
463.753
463.648
463.546
463.445
463.347
463.251
463.157
463.064
462.973
462.883
462.795
462.707
462.621
462.536
462.453
462.37
462.288
462.207
462.127
462.048
461.969
461.892
461.815
461.739
461.664
461.589
461.516
461.443
461.37
461.299
461.228
461.159
461.089
461.021
460.953
460.886
460.82
460.755
460.69
460.626
460.563
460.501
460.439
460.378
460.318
460.258
460.199
460.141
460.084
460.028
459.972
459.917
459.862
459.809
459.756
459.704
459.652
459.601
459.55
459.501
459.451
459.403
459.354
459.307
459.259
459.212
459.165
459.119
459.072
459.026
458.979
458.933
458.886
458.839
458.791
458.743
458.695
458.645
458.595
458.543
458.49
458.436
458.381
458.323
458.264
458.204
458.141
458.076
458.009
457.94
457.869
457.796
457.721
457.645
457.566
457.487
457.407
457.327
457.248
457.17
457.094
457.022
456.954
456.892
456.837
456.792
456.758
456.737
456.732
456.744
456.777
456.833
456.914
457.023
457.163
457.335
457.543
457.788
458.072
469.661
469.642
469.605
469.549
469.476
469.386
469.279
469.158
469.023
468.877
468.72
468.556
468.383
468.206
468.023
467.837
467.648
467.457
467.266
467.075
466.885
466.697
466.511
466.327
466.148
465.972
465.8
465.633
465.471
465.313
465.16
465.012
464.868
464.729
464.595
464.465
464.339
464.216
464.098
463.983
463.871
463.762
463.656
463.552
463.451
463.352
463.255
463.159
463.066
462.974
462.883
462.794
462.706
462.619
462.534
462.449
462.366
462.283
462.201
462.121
462.041
461.961
461.883
461.805
461.729
461.652
461.577
461.502
461.429
461.355
461.283
461.211
461.14
461.069
461
460.93
460.862
460.794
460.727
460.661
460.595
460.529
460.465
460.401
460.338
460.275
460.213
460.151
460.09
460.03
459.97
459.911
459.852
459.794
459.736
459.678
459.622
459.565
459.509
459.453
459.398
459.342
459.287
459.232
459.177
459.123
459.068
459.012
458.957
458.901
458.845
458.789
458.731
458.673
458.614
458.554
458.493
458.431
458.367
458.301
458.233
458.164
458.092
458.018
457.941
457.862
457.78
457.694
457.606
457.515
457.42
457.322
457.221
457.117
457.009
456.899
456.787
456.673
456.557
456.44
456.323
456.207
456.093
455.983
455.877
455.778
455.687
455.606
455.539
455.486
455.451
455.437
455.446
455.482
455.547
455.645
455.778
455.949
456.161
456.416
469.606
469.588
469.552
469.499
469.428
469.341
469.238
469.12
468.99
468.848
468.695
468.534
468.366
468.192
468.012
467.829
467.643
467.455
467.267
467.078
466.89
466.703
466.519
466.337
466.159
465.984
465.813
465.646
465.484
465.326
465.173
465.024
464.88
464.741
464.606
464.475
464.348
464.225
464.106
463.99
463.877
463.767
463.66
463.556
463.454
463.354
463.256
463.16
463.066
462.973
462.882
462.792
462.703
462.616
462.53
462.445
462.36
462.277
462.195
462.113
462.033
461.953
461.874
461.795
461.717
461.64
461.564
461.489
461.414
461.339
461.266
461.193
461.12
461.049
460.977
460.907
460.837
460.767
460.699
460.63
460.562
460.495
460.428
460.362
460.297
460.231
460.167
460.102
460.038
459.975
459.912
459.849
459.786
459.724
459.662
459.601
459.539
459.478
459.417
459.355
459.294
459.233
459.172
459.11
459.048
458.986
458.923
458.86
458.796
458.731
458.665
458.599
458.531
458.461
458.391
458.318
458.244
458.168
458.089
458.008
457.925
457.838
457.749
457.656
457.56
457.46
457.356
457.249
457.137
457.02
456.9
456.774
456.645
456.511
456.372
456.229
456.082
455.932
455.779
455.623
455.466
455.308
455.15
454.995
454.842
454.695
454.555
454.425
454.306
454.202
454.115
454.049
454.008
453.993
454.009
454.06
454.148
454.278
454.452
454.673
469.57
469.552
469.517
469.465
469.396
469.311
469.21
469.095
468.967
468.828
468.678
468.52
468.354
468.182
468.005
467.824
467.64
467.454
467.267
467.079
466.893
466.707
466.524
466.343
466.165
465.991
465.821
465.654
465.492
465.334
465.181
465.032
464.888
464.748
464.613
464.481
464.354
464.23
464.11
463.994
463.88
463.77
463.662
463.557
463.455
463.354
463.256
463.159
463.064
462.971
462.879
462.789
462.7
462.612
462.525
462.439
462.354
462.27
462.187
462.105
462.024
461.943
461.863
461.784
461.706
461.628
461.551
461.474
461.398
461.323
461.248
461.174
461.1
461.027
460.955
460.883
460.811
460.74
460.669
460.599
460.53
460.46
460.392
460.323
460.255
460.187
460.12
460.053
459.986
459.919
459.853
459.787
459.72
459.654
459.589
459.523
459.457
459.39
459.324
459.258
459.191
459.124
459.056
458.988
458.919
458.849
458.779
458.707
458.635
458.561
458.486
458.409
458.331
458.25
458.168
458.083
457.996
457.906
457.813
457.717
457.617
457.514
457.407
457.296
457.18
457.06
456.935
456.804
456.669
456.527
456.38
456.227
456.069
455.904
455.733
455.557
455.375
455.187
454.995
454.799
454.599
454.397
454.193
453.99
453.788
453.59
453.397
453.212
453.038
452.878
452.735
452.612
452.514
452.443
452.405
452.403
452.441
452.524
452.655
452.837
469.551
469.534
469.499
469.448
469.38
469.296
469.196
469.082
468.956
468.818
468.669
468.512
468.348
468.177
468.001
467.821
467.638
467.452
467.266
467.08
466.894
466.709
466.526
466.346
466.168
465.994
465.824
465.657
465.495
465.337
465.184
465.035
464.891
464.751
464.615
464.483
464.355
464.232
464.111
463.994
463.88
463.77
463.662
463.556
463.453
463.352
463.253
463.156
463.061
462.967
462.875
462.784
462.694
462.606
462.519
462.432
462.347
462.262
462.179
462.096
462.014
461.933
461.852
461.772
461.693
461.614
461.536
461.459
461.382
461.305
461.23
461.154
461.079
461.005
460.931
460.858
460.785
460.712
460.64
460.568
460.496
460.425
460.354
460.283
460.213
460.143
460.073
460.003
459.933
459.863
459.794
459.724
459.654
459.585
459.515
459.444
459.374
459.303
459.232
459.16
459.088
459.015
458.941
458.866
458.79
458.714
458.635
458.556
458.475
458.392
458.308
458.221
458.132
458.041
457.947
457.85
457.749
457.646
457.539
457.428
457.312
457.193
457.068
456.938
456.803
456.662
456.516
456.363
456.203
456.036
455.863
455.682
455.494
455.298
455.094
454.883
454.665
454.439
454.207
453.969
453.725
453.476
453.224
452.969
452.715
452.461
452.212
451.969
451.735
451.513
451.308
451.122
450.961
450.829
450.73
450.669
450.651
450.68
450.762
450.9
469.551
469.533
469.499
469.447
469.379
469.295
469.196
469.082
468.955
468.817
468.669
468.512
468.347
468.176
468
467.82
467.637
467.452
467.265
467.079
466.893
466.708
466.525
466.345
466.167
465.993
465.822
465.656
465.494
465.336
465.182
465.033
464.889
464.749
464.613
464.481
464.353
464.229
464.108
463.991
463.877
463.766
463.658
463.552
463.449
463.348
463.249
463.151
463.056
462.962
462.869
462.778
462.688
462.599
462.511
462.424
462.338
462.253
462.169
462.086
462.003
461.921
461.84
461.759
461.679
461.6
461.521
461.443
461.365
461.287
461.211
461.134
461.058
460.982
460.907
460.832
460.758
460.684
460.61
460.536
460.463
460.389
460.316
460.244
460.171
460.098
460.026
459.953
459.88
459.808
459.735
459.662
459.588
459.515
459.441
459.366
459.291
459.216
459.14
459.063
458.985
458.906
458.826
458.745
458.663
458.579
458.493
458.406
458.316
458.225
458.131
458.034
457.935
457.833
457.727
457.618
457.506
457.389
457.267
457.141
457.011
456.874
456.732
456.584
456.43
456.269
456.1
455.924
455.741
455.549
455.348
455.139
454.921
454.694
454.457
454.21
453.955
453.69
453.416
453.134
452.843
452.546
452.242
451.934
451.623
451.311
451.001
450.694
450.395
450.106
449.832
449.578
449.347
449.145
448.978
448.851
448.769
448.738
448.764
448.852
469.568
469.55
469.515
469.463
469.395
469.309
469.209
469.094
468.966
468.826
468.677
468.518
468.352
468.18
468.003
467.822
467.637
467.451
467.264
467.077
466.89
466.704
466.521
466.34
466.162
465.987
465.817
465.65
465.487
465.329
465.176
465.027
464.882
464.742
464.606
464.474
464.347
464.222
464.102
463.985
463.871
463.76
463.652
463.546
463.442
463.341
463.242
463.144
463.049
462.954
462.862
462.77
462.68
462.591
462.502
462.415
462.329
462.244
462.159
462.075
461.992
461.909
461.827
461.746
461.665
461.585
461.505
461.426
461.347
461.269
461.191
461.113
461.036
460.959
460.883
460.807
460.731
460.655
460.579
460.504
460.429
460.353
460.278
460.203
460.128
460.053
459.978
459.903
459.827
459.752
459.676
459.599
459.522
459.445
459.367
459.289
459.209
459.129
459.048
458.966
458.883
458.798
458.712
458.625
458.536
458.445
458.352
458.257
458.159
458.059
457.956
457.85
457.74
457.628
457.511
457.39
457.265
457.135
456.999
456.859
456.712
456.56
456.4
456.234
456.061
455.879
455.689
455.491
455.283
455.066
454.838
454.601
454.352
454.093
453.822
453.54
453.246
452.94
452.624
452.296
451.957
451.609
451.251
450.886
450.515
450.14
449.764
449.388
449.018
448.656
448.307
447.975
447.667
447.388
447.144
446.941
446.787
446.687
446.65
446.679
469.604
469.586
469.55
469.496
469.426
469.338
469.235
469.118
468.987
468.845
468.692
468.531
468.363
468.188
468.009
467.826
467.639
467.451
467.263
467.074
466.885
466.698
466.514
466.332
466.153
465.978
465.806
465.639
465.476
465.318
465.164
465.015
464.871
464.731
464.595
464.464
464.336
464.212
464.092
463.975
463.861
463.751
463.643
463.537
463.434
463.333
463.233
463.136
463.04
462.946
462.853
462.761
462.671
462.581
462.493
462.405
462.319
462.233
462.148
462.063
461.98
461.897
461.814
461.732
461.651
461.57
461.489
461.409
461.329
461.25
461.171
461.092
461.014
460.936
460.858
460.78
460.703
460.626
460.548
460.471
460.394
460.317
460.24
460.163
460.086
460.008
459.931
459.853
459.774
459.696
459.617
459.537
459.457
459.376
459.294
459.211
459.128
459.043
458.957
458.87
458.782
458.692
458.6
458.506
458.411
458.313
458.212
458.11
458.004
457.895
457.783
457.668
457.549
457.425
457.297
457.165
457.027
456.884
456.735
456.58
456.419
456.25
456.074
455.889
455.697
455.495
455.284
455.063
454.831
454.588
454.334
454.068
453.789
453.497
453.192
452.873
452.54
452.193
451.832
451.457
451.068
450.666
450.252
449.827
449.392
448.95
448.502
448.053
447.605
447.162
446.73
446.313
445.919
445.552
445.221
444.933
444.696
444.518
444.407
444.369
469.658
469.639
469.602
469.546
469.473
469.383
469.276