/*--------------------------------*- C++ -*----------------------------------*\
| =========                 |                                                 |
| \\      /  F ield         | OpenFOAM: The Open Source CFD Toolbox           |
|  \\    /   O peration     | Version:  2306                                  |
|   \\  /    A nd           | Website:  www.openfoam.com                      |
|    \\/     M anipulation  |                                                 |
\*---------------------------------------------------------------------------*/
FoamFile
{
    version     2.0;
    format      ascii;
    arch        "LSB;label=32;scalar=64";
    class       surfaceScalarField;
    location    "0.35";
    object      phi;
}
// * * * * * * * * * * * * * * * * * * * * * * * * * * * * * * * * * * * * * //

dimensions      [0 3 -1 0 0 0 0];

oriented        oriented;

internalField   nonuniform List<scalar> 
34640
(
0.0049244
7.55987e-05
0.00478599
0.000138414
0.00463052
0.000155467
0.00447385
0.000156669
0.00431583
0.000158023
0.00415467
0.000161162
0.00399075
0.00016392
0.00382542
0.00016533
0.00366031
0.000165105
0.00349681
0.000163497
0.00333583
0.000160981
0.00317797
0.000157867
0.00302375
0.000154218
0.00287376
0.000149992
0.00272862
0.000145136
0.00258899
0.000139631
0.00245555
0.000133441
0.0023289
0.000126649
0.00220941
0.00011949
0.00209747
0.000111938
0.0019934
0.000104074
0.00189739
9.60086e-05
0.00180953
8.78641e-05
0.00172976
7.97697e-05
0.0016579
7.18525e-05
0.00159367
6.4232e-05
0.00153666
5.70123e-05
0.00148638
5.02784e-05
0.00144229
4.40927e-05
0.00140379
3.84947e-05
0.00137029
3.3501e-05
0.00134118
2.91089e-05
0.00131589
2.52975e-05
0.00129385
2.20345e-05
0.00127457
1.92771e-05
0.0012576
1.69771e-05
0.00124252
1.50795e-05
0.001229
1.35207e-05
0.00121675
1.22507e-05
0.00120552
1.12293e-05
0.0011951
1.04195e-05
0.00118531
9.78615e-06
0.00117601
9.29646e-06
0.00116709
8.92142e-06
0.00115846
8.63625e-06
0.00115004
8.42033e-06
0.00114178
8.25685e-06
0.00113365
8.13223e-06
0.00112561
8.03563e-06
0.00111765
7.95854e-06
0.00110976
7.89438e-06
0.00110192
7.8382e-06
0.00109413
7.78639e-06
0.0010864
7.73646e-06
0.00107871
7.68677e-06
0.00107108
7.63637e-06
0.00106349
7.5848e-06
0.00105596
7.53203e-06
0.00104848
7.47828e-06
0.00104106
7.42397e-06
0.00103369
7.36969e-06
0.00102637
7.31606e-06
0.00101911
7.26379e-06
0.00101189
7.21358e-06
0.00100473
7.16613e-06
0.000997605
7.12214e-06
0.000990522
7.08226e-06
0.000983475
7.04712e-06
0.000976458
7.01732e-06
0.000969464
6.99338e-06
0.000962489
6.97581e-06
0.000955524
6.96507e-06
0.000948562
6.96157e-06
0.000941596
6.96573e-06
0.000934618
6.97797e-06
0.00092762
6.9987e-06
0.000920591
7.02831e-06
0.000913524
7.06718e-06
0.000906408
7.11567e-06
0.000899234
7.17416e-06
0.000891991
7.24299e-06
0.000884669
7.32255e-06
0.000877256
7.41319e-06
0.00086974
7.51529e-06
0.000862111
7.62924e-06
0.000854356
7.75542e-06
0.000846461
7.89421e-06
0.000838415
8.04603e-06
0.000830204
8.21128e-06
0.000821814
8.39037e-06
0.00081323
8.58373e-06
0.000804438
8.79176e-06
0.000795423
9.01487e-06
0.00078617
9.25348e-06
0.000776662
9.50797e-06
0.000766883
9.7787e-06
0.000756817
1.0066e-05
0.000746447
1.03703e-05
0.000735755
1.06916e-05
0.000724725
1.10303e-05
0.000713338
1.13865e-05
0.000701578
1.17602e-05
0.000689427
1.21512e-05
0.000676868
1.25594e-05
0.000663883
1.29844e-05
0.000650457
1.34258e-05
0.000636574
1.3883e-05
0.000622219
1.4355e-05
0.000607379
1.48407e-05
0.00059204
1.53384e-05
0.000576194
1.58464e-05
0.000559831
1.63626e-05
0.000542947
1.68845e-05
0.000525538
1.74089e-05
0.000507606
1.79324e-05
0.000489155
1.84509e-05
0.000470195
1.89599e-05
0.000450741
1.94542e-05
0.000430813
1.99281e-05
0.000410437
2.03756e-05
0.000389647
2.07898e-05
0.000368483
2.11637e-05
0.000346994
2.14898e-05
0.000325233
2.17604e-05
0.000303265
2.1968e-05
0.00028116
2.2105e-05
0.000258996
2.21646e-05
0.000236855
2.21407e-05
0.000214827
2.20281e-05
0.000193004
2.18231e-05
0.00017148
2.15235e-05
0.000150352
2.11283e-05
0.000129714
2.06381e-05
0.000109659
2.00543e-05
9.02807e-05
1.93788e-05
7.16677e-05
1.86129e-05
5.3911e-05
1.77567e-05
3.71017e-05
1.68094e-05
2.13299e-05
1.57717e-05
6.68068e-06
1.46493e-05
-6.77675e-06
1.34574e-05
-1.90087e-05
1.2232e-05
-3.00103e-05
1.10017e-05
-3.98258e-05
9.81544e-06
-4.85339e-05
8.70818e-06
-5.6217e-05
7.68308e-06
-6.29251e-05
6.70814e-06
-6.86627e-05
5.73754e-06
-7.34012e-05
4.73852e-06
-7.71336e-05
3.73249e-06
-7.99376e-05
2.804e-06
-8.19823e-05
2.0447e-06
-8.34453e-05
1.46294e-06
-8.44054e-05
9.60147e-07
-8.48656e-05
4.60205e-07
-8.48643e-05
-1.29391e-09
-8.4514e-05
-3.5032e-07
-8.38537e-05
-6.60262e-07
-8.27714e-05
-1.08233e-06
-1.66927e-06
-8.11021e-05
0.00503752
3.80748e-05
0.0050774
9.85348e-05
0.00509715
0.00013572
0.00510102
0.000152795
0.00509795
0.000161096
0.00509063
0.000168478
0.0050778
0.000176757
0.00505833
0.000184797
0.00503218
0.000191259
0.005
0.000195671
0.00496268
0.000198301
0.00492096
0.000199591
0.00487537
0.000199808
0.00482632
0.000199041
0.00477418
0.000197272
0.00471936
0.000194458
0.0046622
0.000190593
0.00460311
0.000185742
0.00454259
0.000180007
0.00448107
0.000173462
0.00441895
0.000166198
0.00435662
0.000158336
0.00429446
0.000150018
0.00423283
0.000141401
0.00417204
0.000132643
0.00411237
0.000123902
0.00405406
0.00011532
0.00399732
0.000107025
0.00394229
9.91239e-05
0.00388908
9.1698e-05
0.00383778
8.48036e-05
0.00378841
7.84752e-05
0.00374099
7.27234e-05
0.00369548
6.75432e-05
0.00365184
6.29123e-05
0.00361001
5.88102e-05
0.00356985
5.52423e-05
0.00353132
5.20474e-05
0.00349435
4.92184e-05
0.00345885
4.67313e-05
0.00342472
4.45482e-05
0.00339188
4.26313e-05
0.00336023
4.09448e-05
0.0033297
3.94556e-05
0.0033002
3.81345e-05
0.00327166
3.69555e-05
0.00324402
3.58965e-05
0.00321722
3.49387e-05
0.00319119
3.4066e-05
0.00316588
3.32651e-05
0.00314125
3.25249e-05
0.00311725
3.18364e-05
0.00309385
3.11921e-05
0.003071
3.05864e-05
0.00304867
3.00146e-05
0.00302683
2.94733e-05
0.00300546
2.89599e-05
0.00298452
2.84724e-05
0.00296398
2.80093e-05
0.00294384
2.75698e-05
0.00292405
2.71532e-05
0.00290461
2.67593e-05
0.00288549
2.63878e-05
0.00286666
2.60388e-05
0.00284812
2.57126e-05
0.00282983
2.54094e-05
0.00281178
2.51295e-05
0.00279395
2.48734e-05
0.00277633
2.46415e-05
0.00275889
2.44343e-05
0.00274161
2.42523e-05
0.00272448
2.40959e-05
0.00270748
2.39656e-05
0.00269058
2.3862e-05
0.00267377
2.37858e-05
0.00265704
2.37376e-05
0.00264035
2.37181e-05
0.00262368
2.37282e-05
0.00260703
2.37686e-05
0.00259037
2.38401e-05
0.00257367
2.39437e-05
0.00255691
2.40802e-05
0.00254007
2.42506e-05
0.00252313
2.4456e-05
0.00250606
2.46976e-05
0.00248884
2.49764e-05
0.00247144
2.52938e-05
0.00245384
2.5651e-05
0.002436
2.60494e-05
0.0024179
2.64905e-05
0.00239951
2.69757e-05
0.00238079
2.75067e-05
0.00236172
2.8085e-05
0.00234226
2.87124e-05
0.00232238
2.93906e-05
0.00230204
3.01214e-05
0.0022812
3.09065e-05
0.00225982
3.17478e-05
0.00223786
3.26472e-05
0.00221529
3.36064e-05
0.00219205
3.46271e-05
0.00216809
3.57112e-05
0.00214339
3.68601e-05
0.00211787
3.80752e-05
0.0020915
3.93568e-05
0.00206422
4.07074e-05
0.00203597
4.21278e-05
0.00200671
4.36181e-05
0.00197637
4.51783e-05
0.0019449
4.68079e-05
0.00191224
4.85063e-05
0.00187833
5.02719e-05
0.00184311
5.21023e-05
0.00180653
5.3994e-05
0.00176852
5.59424e-05
0.00172903
5.79419e-05
0.001688
5.99854e-05
0.00164539
6.20644e-05
0.00160115
6.41685e-05
0.00155524
6.62855e-05
0.00150763
6.84012e-05
0.00145829
7.0499e-05
0.00140722
7.25599e-05
0.00135442
7.45624e-05
0.00129991
7.6482e-05
0.00124372
7.82917e-05
0.00118593
7.99613e-05
0.00112661
8.14581e-05
0.00106589
8.27462e-05
0.00100393
8.37875e-05
0.000940907
8.45418e-05
0.000877068
8.49677e-05
0.000812682
8.50236e-05
0.000748067
8.46691e-05
0.000683579
8.38674e-05
0.000619604
8.25874e-05
0.000556555
8.08063e-05
0.00049485
7.8514e-05
0.000434904
7.57177e-05
0.000377107
7.24467e-05
0.000321812
6.87519e-05
0.000269329
6.47154e-05
0.000219905
6.04255e-05
0.000173739
5.59816e-05
0.000130979
5.14677e-05
9.17239e-05
4.69384e-05
5.60042e-05
4.24279e-05
2.37999e-05
3.79419e-05
-4.7819e-06
3.33203e-05
-2.98447e-05
2.87953e-05
-5.15764e-05
2.45357e-05
-7.03775e-05
2.08458e-05
-8.64924e-05
1.75779e-05
-0.000100061
1.45285e-05
-0.0001112
1.15996e-05
-0.000120126
8.92458e-06
-0.00012714
6.66415e-06
-0.000132461
4.65988e-06
-0.000136086
2.54307e-06
2.2123e-07
-0.000137976
0.00501445
2.36272e-05
0.00504447
6.85093e-05
0.00507418
0.000106011
0.00509859
0.000128388
0.00511781
0.000141877
0.00513503
0.000151254
0.00515196
0.000159827
0.00516818
0.000168575
0.00518272
0.000176723
0.00519492
0.000183471
0.00520465
0.000188571
0.00521208
0.000192157
0.0052174
0.000194494
0.00522066
0.000195782
0.00522183
0.000196101
0.00522084
0.000195443
0.00521764
0.000193793
0.00521223
0.000191157
0.00520467
0.000187564
0.00519503
0.000183105
0.00518338
0.000177852
0.00516981
0.000171902
0.00515445
0.000165373
0.00513746
0.000158401
0.00511897
0.000151125
0.00509919
0.000143689
0.00507828
0.00013623
0.00505643
0.000128874
0.00503382
0.000121733
0.00501062
0.000114897
0.00498698
0.000108438
0.00496305
0.000102406
0.00493895
9.68304e-05
0.00491476
9.17257e-05
0.00489059
8.7091e-05
0.00486648
8.29159e-05
0.00484255
7.91734e-05
0.00481879
7.58088e-05
0.00479522
7.27879e-05
0.00477186
7.00858e-05
0.00474874
6.76754e-05
0.00472584
6.55262e-05
0.00470318
6.36071e-05
0.00468075
6.18882e-05
0.00465854
6.03421e-05
0.00463655
5.89445e-05
0.00461477
5.76739e-05
0.0045932
5.65117e-05
0.00457182
5.5442e-05
0.00455064
5.44514e-05
0.00452963
5.35285e-05
0.00450881
5.26639e-05
0.00448815
5.18501e-05
0.00446765
5.10808e-05
0.00444732
5.03513e-05
0.00442713
4.96578e-05
0.0044071
4.89974e-05
0.0043872
4.83683e-05
0.00436744
4.77688e-05
0.00434781
4.71982e-05
0.00432831
4.6656e-05
0.00430893
4.61421e-05
0.00428966
4.56565e-05
0.0042705
4.51997e-05
0.00425144
4.47722e-05
0.00423247
4.43746e-05
0.00421359
4.40079e-05
0.00419479
4.36728e-05
0.00417606
4.33705e-05
0.0041574
4.31019e-05
0.00413878
4.28685e-05
0.00412021
4.26707e-05
0.00410166
4.25098e-05
0.00408314
4.23872e-05
0.00406462
4.23042e-05
0.00404609
4.22622e-05
0.00402755
4.22628e-05
0.00400897
4.23076e-05
0.00399034
4.2398e-05
0.00397164
4.2536e-05
0.00395286
4.27232e-05
0.00393398
4.29616e-05
0.00391498
4.32532e-05
0.00389584
4.36001e-05
0.00387653
4.40046e-05
0.00385704
4.4469e-05
0.00383733
4.49958e-05
0.0038174
4.55877e-05
0.0037972
4.62474e-05
0.00377671
4.69777e-05
0.00375591
4.77818e-05
0.00373475
4.86628e-05
0.00371321
4.96242e-05
0.00369125
5.06693e-05
0.00366884
5.18019e-05
0.00364594
5.30257e-05
0.0036225
5.43446e-05
0.00359849
5.57628e-05
0.00357385
5.72845e-05
0.00354854
5.89138e-05
0.00352251
6.06552e-05
0.00349571
6.25131e-05
0.00346808
6.44919e-05
0.00343956
6.65959e-05
0.00341009
6.88293e-05
0.0033796
7.1197e-05
0.00334802
7.37034e-05
0.00331529
7.63523e-05
0.00328132
7.91471e-05
0.00324604
8.20904e-05
0.00320936
8.51863e-05
0.00317119
8.8437e-05
0.00313145
9.18436e-05
0.00309004
9.54065e-05
0.00304685
9.91251e-05
0.0030018
0.000102997
0.00295477
0.000107019
0.00290564
0.000111185
0.00285433
0.000115487
0.0028007
0.000119916
0.00274464
0.000124458
0.00268604
0.000129097
0.00262479
0.000133813
0.00256077
0.000138582
0.00249388
0.000143374
0.00242401
0.000148156
0.00235108
0.000152889
0.00227501
0.000157526
0.00219575
0.000162015
0.00211324
0.000166296
0.00202748
0.0001703
0.0019385
0.000173952
0.00184635
0.000177168
0.00175116
0.000179859
0.0016531
0.000181934
0.00155239
0.00018329
0.00144938
0.000183824
0.00134446
0.000183431
0.00123817
0.000182011
0.00113114
0.000179477
0.00102413
0.000175753
0.000918058
0.000170792
0.000813906
0.000164577
0.000712756
0.000157132
0.000615693
0.000148531
0.000523728
0.000138903
0.00043772
0.000128436
0.00035829
0.000117372
0.000285574
0.000106036
0.000219568
9.48016e-05
0.000160101
8.40023e-05
0.000107102
7.3845e-05
6.02568e-05
6.44234e-05
1.94234e-05
5.53619e-05
-1.56943e-05
4.67172e-05
-4.55687e-05
3.8799e-05
-7.09429e-05
3.20384e-05
-9.22454e-05
2.59624e-05
-0.000109712
2.00097e-05
1.40865e-05
-0.000123577
0.00500634
1.72885e-05
0.00502385
5.09991e-05
0.00504705
8.28144e-05
0.00506939
0.000106043
0.00508908
0.000122187
0.00510686
0.000133478
0.00512443
0.000142249
0.00514265
0.000150363
0.00516108
0.000158284
0.00517925
0.000165302
0.00519682
0.000171002
0.00521368
0.000175301
0.00522985
0.000178324
0.00524536
0.000180269
0.00526017
0.000181292
0.00527418
0.000181437
0.00528726
0.000180712
0.0052993
0.000179119
0.00531018
0.000176679
0.00531984
0.000173449
0.00532819
0.000169496
0.00533519
0.000164902
0.0053408
0.000159761
0.00534502
0.000154181
0.00534787
0.000148278
0.00534939
0.00014217
0.00534965
0.000135972
0.00534873
0.000129793
0.00534673
0.000123731
0.00534376
0.000117872
0.00533991
0.000112283
0.0053353
0.000107015
0.00533003
0.000102105
0.00532418
9.75717e-05
0.00531785
9.34229e-05
0.00531111
8.9651e-05
0.00530405
8.62393e-05
0.00529669
8.31663e-05
0.00528907
8.04047e-05
0.00528123
7.79289e-05
0.00527319
7.57154e-05
0.00526498
7.37398e-05
0.00525661
7.19772e-05
0.00524809
7.04027e-05
0.00523944
6.89925e-05
0.00523066
6.77249e-05
0.00522176
6.65804e-05
0.00521273
6.55419e-05
0.00520357
6.45945e-05
0.0051943
6.37255e-05
0.0051849
6.2924e-05
0.00517539
6.21809e-05
0.00516575
6.14886e-05
0.00515599
6.08411e-05
0.00514611
6.02334e-05
0.0051361
5.96616e-05
0.00512598
5.91229e-05
0.00511573
5.86151e-05
0.00510536
5.81369e-05
0.00509487
5.76872e-05
0.00508426
5.72657e-05
0.00507353
5.68723e-05
0.00506268
5.65074e-05
0.00505171
5.61715e-05
0.00504062
5.58653e-05
0.0050294
5.55899e-05
0.00501806
5.53465e-05
0.0050066
5.51363e-05
0.00499501
5.49608e-05
0.00498329
5.48216e-05
0.00497144
5.47203e-05
0.00495945
5.46583e-05
0.00494732
5.46372e-05
0.00493505
5.46592e-05
0.00492263
5.47262e-05
0.00491005
5.48403e-05
0.00489731
5.50039e-05
0.0048844
5.52191e-05
0.00487131
5.54885e-05
0.00485803
5.58146e-05
0.00484455
5.62002e-05
0.00483086
5.66481e-05
0.00481696
5.71613e-05
0.00480281
5.7743e-05
0.00478842
5.83965e-05
0.00477377
5.91254e-05
0.00475883
5.99333e-05
0.00474359
6.08242e-05
0.00472804
6.18021e-05
0.00471214
6.28716e-05
0.00469589
6.4037e-05
0.00467925
6.53033e-05
0.0046622
6.66755e-05
0.00464471
6.81589e-05
0.00462675
6.97592e-05
0.00460829
7.1482e-05
0.0045893
7.33336e-05
0.00456975
7.53202e-05
0.00454958
7.74486e-05
0.00452877
7.97256e-05
0.00450727
8.21583e-05
0.00448503
8.47541e-05
0.004462
8.75206e-05
0.00443813
9.04654e-05
0.00441336
9.35966e-05
0.00438764
9.69223e-05
0.00436089
0.000100451
0.00433305
0.00010419
0.00430405
0.000108149
0.0042738
0.000112335
0.00424223
0.000116755
0.00420925
0.000121419
0.00417476
0.000126332
0.00413867
0.000131501
0.00410086
0.000136932
0.00406123
0.000142629
0.00401966
0.000148594
0.00397601
0.00015483
0.00393016
0.000161335
0.00388197
0.000168108
0.00383129
0.000175142
0.00377795
0.000182429
0.00372181
0.000189956
0.00366269
0.000197707
0.0036004
0.000205659
0.00353477
0.000213784
0.00346561
0.000222048
0.00339273
0.00023041
0.00331593
0.000238819
0.00323501
0.000247216
0.00314978
0.00025553
0.00306005
0.00026368
0.00296565
0.000271566
0.00286643
0.000279082
0.00276224
0.000286124
0.00265297
0.000292552
0.00253857
0.000298223
0.00241903
0.000302977
0.00229439
0.000306646
0.00216481
0.000309054
0.00203055
0.000310015
0.001892
0.000309346
0.00174971
0.000306869
0.00160442
0.000302422
0.00145711
0.000295842
0.00130902
0.000286992
0.00116167
0.000275779
0.00101686
0.000262188
0.000876587
0.000246308
0.00074301
0.000228379
0.000618212
0.0002088
0.000503925
0.000188132
0.000401343
0.000167005
0.000310542
0.000146163
0.000230861
0.000126399
0.000161285
0.000108375
0.000100926
9.23967e-05
4.88979e-05
7.79908e-05
4.61391e-06
6.42937e-05
5.14352e-05
-3.27348e-05
0.00500365
1.36379e-05
0.00501435
4.0303e-05
0.00503119
6.59759e-05
0.00504934
8.7885e-05
0.00506702
0.00010451
0.00508362
0.000116874
0.00509961
0.000126267
0.00511581
0.000134163
0.00513256
0.000141531
0.00514965
0.000148212
0.00516675
0.000153904
0.00518365
0.000158394
0.0052003
0.00016168
0.00521666
0.000163901
0.00523276
0.000165198
0.00524854
0.000165657
0.00526393
0.000165323
0.00527883
0.000164219
0.00529314
0.000162371
0.00530677
0.000159821
0.00531963
0.000156629
0.00533167
0.000152867
0.00534281
0.000148615
0.00535303
0.000143965
0.0053623
0.000139011
0.00537061
0.000133853
0.005378
0.000128588
0.00538448
0.000123307
0.00539012
0.000118095
0.00539497
0.000113025
0.00539909
0.000108158
0.00540256
0.000103543
0.00540545
9.92145e-05
0.00540783
9.51935e-05
0.00540977
9.149e-05
0.00541131
8.81031e-05
0.00541253
8.50254e-05
0.00541345
8.22455e-05
0.00541411
7.97448e-05
0.00541453
7.75021e-05
0.00541475
7.54963e-05
0.00541479
7.37073e-05
0.00541465
7.21146e-05
0.00541435
7.06978e-05
0.00541391
6.9437e-05
0.00541332
6.83134e-05
0.00541259
6.73097e-05
0.00541172
6.64106e-05
0.00541072
6.56024e-05
0.00540957
6.48732e-05
0.00540828
6.42131e-05
0.00540685
6.36132e-05
0.00540527
6.30663e-05
0.00540354
6.25663e-05
0.00540167
6.21084e-05
0.00539964
6.16886e-05
0.00539746
6.1304e-05
0.00539512
6.09522e-05
0.00539263
6.06316e-05
0.00538997
6.03414e-05
0.00538716
6.00808e-05
0.00538418
5.98499e-05
0.00538104
5.96488e-05
0.00537773
5.94781e-05
0.00537426
5.93387e-05
0.00537062
5.92316e-05
0.00536681
5.9158e-05
0.00536282
5.91194e-05
0.00535867
5.91175e-05
0.00535433
5.91539e-05
0.00534982
5.92305e-05
0.00534513
5.93491e-05
0.00534026
5.95119e-05
0.0053352
5.9721e-05
0.00532994
5.9979e-05
0.0053245
6.02883e-05
0.00531885
6.06517e-05
0.005313
6.1072e-05
0.00530693
6.15523e-05
0.00530065
6.20955e-05
0.00529415
6.27052e-05
0.00528741
6.33848e-05
0.00528043
6.4138e-05
0.00527321
6.49687e-05
0.00526572
6.58811e-05
0.00525797
6.68796e-05
0.00524993
6.79688e-05
0.0052416
6.91536e-05
0.00523297
7.04392e-05
0.00522401
7.1831e-05
0.00521471
7.33347e-05
0.00520506
7.49564e-05
0.00519503
7.67027e-05
0.00518461
7.85801e-05
0.00517377
8.05958e-05
0.0051625
8.27573e-05
0.00515076
8.50724e-05
0.00513853
8.75494e-05
0.00512578
9.0197e-05
0.00511248
9.30241e-05
0.0050986
9.60402e-05
0.0050841
9.92552e-05
0.00506894
0.000102679
0.00505308
0.000106323
0.00503648
0.000110198
0.00501909
0.000114315
0.00500085
0.000118686
0.00498172
0.000123324
0.00496163
0.000128239
0.00494052
0.000133446
0.00491831
0.000138957
0.00489495
0.000144784
0.00487034
0.00015094
0.00484441
0.000157437
0.00481705
0.000164288
0.00478818
0.000171503
0.00475768
0.000179094
0.00472544
0.00018707
0.00469133
0.000195438
0.00465523
0.000204206
0.004617
0.000213378
0.00457647
0.000222955
0.00453349
0.000232936
0.00448789
0.000243316
0.00443946
0.000254086
0.00438801
0.00026523
0.00433333
0.000276729
0.00427519
0.000288554
0.00421334
0.000300668
0.00414753
0.000313028
0.00407748
0.000325576
0.00400292
0.000338244
0.00392354
0.000350949
0.00383902
0.000363598
0.00374906
0.000376085
0.00365333
0.000388284
0.0035515
0.000400049
0.00344326
0.000411216
0.0033283
0.000421603
0.00320635
0.000431008
0.00307716
0.000439207
0.00294056
0.00044594
0.00279649
0.000450947
0.00264492
0.000453988
0.00248601
0.000454749
0.00232008
0.00045292
0.00214767
0.000448197
0.00196955
0.000440302
0.00178686
0.000428998
0.00160112
0.000414118
0.00141438
0.00039554
0.00122929
0.000373228
0.00104901
0.000347278
0.000877153
0.000318024
0.000717406
0.000286146
0.000573031
0.00025275
0.000446255
0.000219172
0.000337454
0.000186792
0.000244864
0.000156884
0.00013035
0.000165949
0.00500249
1.11484e-05
0.00500982
3.29721e-05
0.00502171
5.4091e-05
0.00503621
7.3381e-05
0.00505142
8.93028e-05
0.00506648
0.000101814
0.00508114
0.000111608
0.00509573
0.000119565
0.00511075
0.000126516
0.00512619
0.000132767
0.00514189
0.000138211
0.00515762
0.000142661
0.00517324
0.000146058
0.00518869
0.000148449
0.00520396
0.00014993
0.00521902
0.000150598
0.00523382
0.000150521
0.0052483
0.000149742
0.00526237
0.000148297
0.00527597
0.000146225
0.00528902
0.00014358
0.00530146
0.000140423
0.00531325
0.000136826
0.00532435
0.000132867
0.00533473
0.000128627
0.0053444
0.000124189
0.00535335
0.000119638
0.0053616
0.00011505
0.0053692
0.0001105
0.00537617
0.000106049
0.00538258
0.000101754
0.00538846
9.76576e-05
0.00539389
9.37921e-05
0.0053989
9.01797e-05
0.00540356
8.68326e-05
0.00540791
8.37548e-05
0.00541199
8.09446e-05
0.00541584
7.83949e-05
0.00541949
7.60935e-05
0.00542297
7.40243e-05
0.00542629
7.21699e-05
0.00542949
7.05131e-05
0.00543256
6.90373e-05
0.00543554
6.77255e-05
0.00543841
6.65612e-05
0.0054412
6.55284e-05
0.0054439
6.46122e-05
0.00544651
6.37987e-05
0.00544903
6.30759e-05
0.00545147
6.24329e-05
0.00545383
6.18604e-05
0.00545609
6.13503e-05
0.00545826
6.08957e-05
0.00546034
6.04909e-05
0.00546231
6.0131e-05
0.00546419
5.98123e-05
0.00546596
5.95317e-05
0.00546763
5.92869e-05
0.00546918
5.90762e-05
0.00547062
5.88985e-05
0.00547195
5.87532e-05
0.00547316
5.86402e-05
0.00547425
5.85595e-05
0.00547522
5.85116e-05
0.00547606
5.84975e-05
0.00547677
5.8518e-05
0.00547736
5.85746e-05
0.00547781
5.86685e-05
0.00547812
5.88016e-05
0.0054783
5.89755e-05
0.00547834
5.91923e-05
0.00547823
5.9454e-05
0.00547798
5.97629e-05
0.00547758
6.01214e-05
0.00547703
6.05322e-05
0.00547632
6.0998e-05
0.00547545
6.15218e-05
0.00547442
6.21067e-05
0.00547321
6.27561e-05
0.00547183
6.34734e-05
0.00547028
6.42624e-05
0.00546853
6.5127e-05
0.0054666
6.60714e-05
0.00546447
6.70999e-05
0.00546213
6.82172e-05
0.00545958
6.94283e-05
0.00545682
7.07383e-05
0.00545382
7.21528e-05
0.00545058
7.36777e-05
0.00544709
7.53191e-05
0.00544334
7.70836e-05
0.00543932
7.89781e-05
0.00543501
8.10099e-05
0.0054304
8.31867e-05
0.00542548
8.55167e-05
0.00542023
8.80085e-05
0.00541463
9.06712e-05
0.00540867
9.35143e-05
0.00540232
9.65478e-05
0.00539556
9.97824e-05
0.00538837
0.000103229
0.00538073
0.0001069
0.0053726
0.000110806
0.00536396
0.000114962
0.00535478
0.000119379
0.00534502
0.000124072
0.00533465
0.000129056
0.00532363
0.000134345
0.00531192
0.000139956
0.00529946
0.000145903
0.00528621
0.000152204
0.00527212
0.000158874
0.00525713
0.000165933
0.00524117
0.000173396
0.00522418
0.000181281
0.00520607
0.000189606
0.00518678
0.000198387
0.00516621
0.000207641
0.00514426
0.000217384
0.00512084
0.000227632
0.00509582
0.000238397
0.00506908
0.000249692
0.00504049
0.000261528
0.0050099
0.00027391
0.00497714
0.000286844
0.00494204
0.000300328
0.00490441
0.000314359
0.00486404
0.000328925
0.0048207
0.00034401
0.00477414
0.000359587
0.00472409
0.000375623
0.00467026
0.000392072
0.00461233
0.000408879
0.00454995
0.000425974
0.00448277
0.000443275
0.00441037
0.000460682
0.00433234
0.000478076
0.00424824
0.000495318
0.00415759
0.000512247
0.00405992
0.000528678
0.00395474
0.000544395
0.00384152
0.000559157
0.00371977
0.0005727
0.00358902
0.000584736
0.00344883
0.000594936
0.00329882
0.000602935
0.00313867
0.000608344
0.00296824
0.000610732
0.00278757
0.000609661
0.00259692
0.00060477
0.00239688
0.000595584
0.00218843
0.000581677
0.00197302
0.000562692
0.00175264
0.000538398
0.00153009
0.000508697
0.00130919
0.000473654
0.0010948
0.000433554
0.00089255
0.000389047
0.000708035
0.0003414
0.000292697
0.000545687
0.00500185
9.29988e-06
0.00500728
2.7539e-05
0.00501604
4.53326e-05
0.00502755
6.1869e-05
0.00504038
7.64709e-05
0.00505372
8.84763e-05
0.00506711
9.82156e-05
0.00508051
0.000106166
0.00509416
0.000112873
0.00510819
0.000118735
0.00512255
0.000123848
0.00513708
0.000128131
0.00515162
0.000131514
0.00516608
0.000133991
0.0051804
0.00013561
0.00519455
0.00013645
0.00520849
0.000136585
0.00522216
0.000136071
0.0052355
0.000134953
0.00524845
0.000133273
0.00526095
0.000131079
0.00527295
0.000128424
0.00528441
0.00012537
0.00529529
0.000121985
0.00530558
0.00011834
0.00531526
0.000114505
0.00532435
0.000110553
0.00533285
0.00010655
0.00534079
0.000102559
0.0053482
9.86368e-05
0.00535513
9.48306e-05
0.0053616
9.118e-05
0.00536768
8.77156e-05
0.0053734
8.44592e-05
0.00537881
8.14246e-05
0.00538394
7.8619e-05
0.00538885
7.60439e-05
0.00539354
7.36954e-05
0.00539807
7.15657e-05
0.00540245
6.9643e-05
0.00540671
6.79139e-05
0.00541086
6.63643e-05
0.00541492
6.49804e-05
0.00541889
6.37482e-05
0.0054228
6.2654e-05
0.00542664
6.16843e-05
0.00543043
6.08263e-05
0.00543416
6.00679e-05
0.00543784
5.93984e-05
0.00544146
5.88081e-05
0.00544504
5.82884e-05
0.00544855
5.7832e-05
0.00545202
5.74325e-05
0.00545542
5.70845e-05
0.00545877
5.67836e-05
0.00546206
5.65259e-05
0.00546528
5.63087e-05
0.00546844
5.61297e-05
0.00547153
5.59871e-05
0.00547454
5.58799e-05
0.00547749
5.58074e-05
0.00548036
5.57694e-05
0.00548315
5.57661e-05
0.00548587
5.57978e-05
0.0054885
5.58655e-05
0.00549105
5.597e-05
0.00549351
5.61127e-05
0.00549588
5.62949e-05
0.00549817
5.65185e-05
0.00550036
5.67852e-05
0.00550245
5.70971e-05
0.00550445
5.74563e-05
0.00550635
5.78652e-05
0.00550814
5.83264e-05
0.00550983
5.88426e-05
0.00551141
5.94167e-05
0.00551288
6.00519e-05
0.00551424
6.07515e-05
0.00551548
6.15189e-05
0.00551659
6.23579e-05
0.00551758
6.32724e-05
0.00551844
6.42667e-05
0.00551917
6.53451e-05
0.00551976
6.65123e-05
0.0055202
6.77733e-05
0.00552049
6.91334e-05
0.00552063
7.05982e-05
0.00552061
7.21736e-05
0.00552043
7.38658e-05
0.00552006
7.56815e-05
0.00551952
7.76276e-05
0.00551879
7.97118e-05
0.00551785
8.19417e-05
0.00551672
8.43257e-05
0.00551536
8.68727e-05
0.00551378
8.95919e-05
0.00551195
9.24931e-05
0.00550988
9.55867e-05
0.00550755
9.88836e-05
0.00550493
0.000102395
0.00550203
0.000106134
0.00549882
0.000110112
0.00549528
0.000114344
0.0054914
0.000118843
0.00548715
0.000123624
0.00548252
0.000128702
0.00547748
0.000134094
0.00547201
0.000139816
0.00546608
0.000145887
0.00545966
0.000152324
0.00545272
0.000159146
0.00544522
0.000166374
0.00543713
0.000174026
0.0054284
0.000182125
0.00541899
0.000190691
0.00540885
0.000199745
0.00539792
0.000209311
0.00538616
0.000219408
0.00537348
0.000230061
0.00535982
0.000241289
0.0053451
0.000253114
0.00532924
0.000265557
0.00531213
0.000278637
0.00529367
0.00029237
0.00527374
0.000306773
0.00525221
0.000321858
0.00522893
0.000337636
0.00520375
0.00035411
0.00517648
0.000371282
0.00514692
0.000389147
0.00511485
0.000407692
0.00508002
0.000426898
0.00504217
0.000446735
0.00500098
0.000467163
0.00495612
0.000488132
0.00490723
0.000509574
0.0048539
0.000531407
0.00479568
0.000553532
0.0047321
0.000575827
0.00466263
0.000598147
0.00458671
0.000620322
0.00450371
0.000642154
0.004413
0.000663415
0.00431389
0.000683843
0.00420569
0.000703139
0.00408766
0.000720959
0.00395909
0.000736915
0.00381926
0.000750568
0.00366747
0.000761451
0.00350317
0.000769071
0.00332588
0.00077287
0.0031353
0.000772255
0.00293142
0.000766575
0.00271455
0.000755265
0.00248547
0.000737775
0.00224563
0.000713496
0.0019972
0.00068199
0.00174317
0.00064307
0.00148779
0.000596789
0.000543541
0.00123694
0.00500144
7.86099e-06
0.00500568
2.33026e-05
0.00501255
3.8455e-05
0.00502174
5.26813e-05
0.00503256
6.56467e-05
0.00504425
7.6795e-05
0.00505635
8.61119e-05
0.00506867
9.38457e-05
0.00508122
0.000100325
0.00509409
0.000105864
0.00510729
0.000110646
0.00512073
0.000114693
0.00513428
0.000117967
0.00514782
0.000120445
0.00516129
0.000122145
0.00517462
0.000123119
0.00518777
0.000123431
0.0052007
0.000123141
0.00521336
0.0001223
0.00522568
0.000120952
0.00523761
0.000119142
0.00524912
0.000116918
0.00526015
0.000114334
0.00527069
0.000111446
0.00528072
0.000108317
0.00529021
0.000105008
0.00529919
0.00010158
0.00530764
9.80924e-05
0.0053156
9.45984e-05
0.00532309
9.11473e-05
0.00533014
8.77814e-05
0.00533679
8.45364e-05
0.00534306
8.14405e-05
0.00534901
7.8515e-05
0.00535466
7.57746e-05
0.00536005
7.3228e-05
0.00536521
7.08785e-05
0.00537018
6.87254e-05
0.00537498
6.67634e-05
0.00537964
6.49845e-05
0.00538418
6.33787e-05
0.00538861
6.1935e-05
0.00539295
6.06419e-05
0.00539721
5.9488e-05
0.0054014
5.84618e-05
0.00540553
5.75519e-05
0.00540961
5.67475e-05
0.00541364
5.60383e-05
0.00541762
5.54148e-05
0.00542156
5.48684e-05
0.00542546
5.43914e-05
0.00542931
5.39772e-05
0.00543313
5.362e-05
0.0054369
5.33148e-05
0.00544062
5.30574e-05
0.0054443
5.28446e-05
0.00544794
5.26734e-05
0.00545153
5.25418e-05
0.00545507
5.24482e-05
0.00545855
5.23915e-05
0.00546199
5.23711e-05
0.00546537
5.23867e-05
0.0054687
5.24386e-05
0.00547197
5.25271e-05
0.00547518
5.26531e-05
0.00547834
5.28176e-05
0.00548143
5.30218e-05
0.00548445
5.32672e-05
0.00548742
5.35555e-05
0.00549031
5.38886e-05
0.00549314
5.42685e-05
0.0054959
5.46975e-05
0.00549859
5.51781e-05
0.0055012
5.57129e-05
0.00550374
5.63047e-05
0.0055062
5.69566e-05
0.00550858
5.76716e-05
0.00551088
5.84533e-05
0.00551309
5.93053e-05
0.00551522
6.02315e-05
0.00551726
6.12359e-05
0.0055192
6.23229e-05
0.00552105
6.3497e-05
0.0055228
6.47633e-05
0.00552444
6.61267e-05
0.00552598
6.75929e-05
0.00552741
6.91676e-05
0.00552873
7.08569e-05
0.00552993
7.26674e-05
0.005531
7.4606e-05
0.00553195
7.66799e-05
0.00553277
7.8897e-05
0.00553344
8.12654e-05
0.00553398
8.37937e-05
0.00553436
8.64911e-05
0.00553458
8.93673e-05
0.00553464
9.24326e-05
0.00553453
9.56977e-05
0.00553424
9.91741e-05
0.00553376
0.000102874
0.00553309
0.000106809
0.0055322
0.000110994
0.00553111
0.000115443
0.00552978
0.00012017
0.00552821
0.00012519
0.00552639
0.000130521
0.00552431
0.000136179
0.00552194
0.000142182
0.00551928
0.000148549
0.0055163
0.0001553
0.005513
0.000162455
0.00550933
0.000170035
0.0055053
0.000178062
0.00550086
0.00018656
0.005496
0.000195551
0.00549069
0.000205059
0.00548489
0.000215111
0.00547857
0.00022573
0.00547169
0.000236942
0.0054642
0.000248774
0.00545607
0.000261251
0.00544722
0.000274399
0.00543762
0.000288244
0.00542718
0.000302811
0.00541583
0.000318123
0.00540348
0.000334202
0.00539005
0.00035107
0.00537542
0.000368743
0.00535946
0.000387236
0.00534205
0.000406562
0.00532301
0.000426725
0.00530218
0.000447727
0.00527936
0.000469562
0.0052543
0.000492217
0.00522677
0.000515669
0.00519646
0.000539884
0.00516304
0.000564818
0.00512617
0.000590409
0.00508541
0.000616582
0.00504032
0.000643239
0.00499038
0.000670263
0.00493502
0.000697512
0.00487362
0.000724815
0.0048055
0.000751967
0.00472991
0.00077873
0.00464605
0.000804821
0.00455305
0.000829911
0.00445