/*--------------------------------*- C++ -*----------------------------------*\
| =========                 |                                                 |
| \\      /  F ield         | OpenFOAM: The Open Source CFD Toolbox           |
|  \\    /   O peration     | Version:  2306                                  |
|   \\  /    A nd           | Website:  www.openfoam.com                      |
|    \\/     M anipulation  |                                                 |
\*---------------------------------------------------------------------------*/
FoamFile
{
    version     2.0;
    format      ascii;
    arch        "LSB;label=32;scalar=64";
    class       volVectorField;
    location    "0.35";
    object      U;
}
// * * * * * * * * * * * * * * * * * * * * * * * * * * * * * * * * * * * * * //

dimensions      [0 1 -1 0 0 0 0];

internalField   nonuniform List<vector> 
17600
(
(9.80708 0.0850068 0)
(9.62283 0.1805 0)
(9.41196 0.217949 0)
(9.14628 0.225578 0)
(8.83439 0.2251 0)
(8.49836 0.225385 0)
(8.15616 0.226736 0)
(7.81672 0.227128 0)
(7.48269 0.225219 0)
(7.15415 0.220818 0)
(6.83067 0.214448 0)
(6.51243 0.206753 0)
(6.20026 0.198159 0)
(5.89552 0.188852 0)
(5.59967 0.178846 0)
(5.31426 0.168128 0)
(5.0406 0.156696 0)
(4.78013 0.144612 0)
(4.53374 0.131893 0)
(4.30221 0.118627 0)
(4.08622 0.104997 0)
(3.88623 0.0912582 0)
(3.70254 0.0777039 0)
(3.53516 0.0646278 0)
(3.38386 0.0522993 0)
(3.24815 0.0409446 0)
(3.12729 0.0307329 0)
(3.02039 0.0217704 0)
(2.92638 0.0140995 0)
(2.84413 0.00770577 0)
(2.77243 0.00252867 0)
(2.71008 -0.00152594 0)
(2.65589 -0.00457199 0)
(2.60875 -0.00673403 0)
(2.5676 -0.00813461 0)
(2.53148 -0.00889557 0)
(2.49953 -0.0091265 0)
(2.47102 -0.00895824 0)
(2.44533 -0.00851196 0)
(2.42191 -0.00788159 0)
(2.40032 -0.0071362 0)
(2.38016 -0.00632701 0)
(2.36111 -0.00549242 0)
(2.34293 -0.00466097 0)
(2.32539 -0.00385331 0)
(2.30836 -0.00308387 0)
(2.2917 -0.00236226 0)
(2.27532 -0.00169447 0)
(2.25917 -0.00108367 0)
(2.24318 -0.000530791 0)
(2.22734 -3.50475e-05 0)
(2.21161 0.000405721 0)
(2.19599 0.000794667 0)
(2.18047 0.00113561 0)
(2.16505 0.00143275 0)
(2.14973 0.00169046 0)
(2.13451 0.00191309 0)
(2.1194 0.00210485 0)
(2.10439 0.00226977 0)
(2.08949 0.00241157 0)
(2.0747 0.00253372 0)
(2.06001 0.00263935 0)
(2.04544 0.00273129 0)
(2.03096 0.00281209 0)
(2.01658 0.00288399 0)
(2.0023 0.00294899 0)
(1.9881 0.00300886 0)
(1.97397 0.00306512 0)
(1.95991 0.00311911 0)
(1.9459 0.00317197 0)
(1.93193 0.00322466 0)
(1.918 0.00327798 0)
(1.90407 0.00333261 0)
(1.89015 0.00338924 0)
(1.87621 0.00344851 0)
(1.86224 0.00351104 0)
(1.84821 0.00357738 0)
(1.83412 0.003648 0)
(1.81994 0.00372333 0)
(1.80566 0.00380374 0)
(1.79125 0.00388956 0)
(1.77668 0.00398111 0)
(1.76195 0.00407866 0)
(1.74703 0.00418248 0)
(1.73189 0.0042928 0)
(1.71651 0.00440981 0)
(1.70087 0.00453372 0)
(1.68493 0.00466467 0)
(1.66868 0.00480282 0)
(1.65208 0.00494826 0)
(1.63512 0.00510108 0)
(1.61775 0.00526131 0)
(1.59995 0.00542894 0)
(1.58169 0.00560392 0)
(1.56293 0.00578611 0)
(1.54365 0.00597532 0)
(1.52382 0.00617126 0)
(1.50339 0.00637355 0)
(1.48233 0.00658169 0)
(1.46062 0.00679504 0)
(1.43821 0.00701279 0)
(1.41507 0.00723395 0)
(1.39117 0.00745727 0)
(1.36647 0.00768128 0)
(1.34093 0.00790428 0)
(1.31453 0.00812488 0)
(1.28723 0.00834173 0)
(1.259 0.00855312 0)
(1.22982 0.00875699 0)
(1.19964 0.00895099 0)
(1.16847 0.00913257 0)
(1.13627 0.00929888 0)
(1.10302 0.00944654 0)
(1.06874 0.00957152 0)
(1.0334 0.00966945 0)
(0.997018 0.00973576 0)
(0.959608 0.00976565 0)
(0.921193 0.00975428 0)
(0.881808 0.00969684 0)
(0.841498 0.00958882 0)
(0.800324 0.00942618 0)
(0.758359 0.00920569 0)
(0.715692 0.00892529 0)
(0.672424 0.00858446 0)
(0.628674 0.00818477 0)
(0.584576 0.00773029 0)
(0.540279 0.00722811 0)
(0.495942 0.00668873 0)
(0.451739 0.00612626 0)
(0.40785 0.00555827 0)
(0.364462 0.00500506 0)
(0.321767 0.0044881 0)
(0.279954 0.00402748 0)
(0.239213 0.00363836 0)
(0.199728 0.00332717 0)
(0.161681 0.00308783 0)
(0.125256 0.00289902 0)
(0.0906339 0.00272402 0)
(0.0579999 0.00251475 0)
(0.0275287 0.0022217 0)
(-0.000627674 0.00181236 0)
(-0.0263358 0.00129065 0)
(-0.0495543 0.000662183 0)
(-0.0703651 3.24288e-06 0)
(-0.0888875 -0.000597844 0)
(-0.105279 -0.00106713 0)
(-0.119674 -0.00137693 0)
(-0.132132 -0.00157569 0)
(-0.142599 -0.00178634 0)
(-0.151035 -0.0020174 0)
(-0.157511 -0.00220753 0)
(-0.162306 -0.00224372 0)
(-0.165785 -0.00215391 0)
(-0.168188 -0.00205237 0)
(-0.169578 -0.00201089 0)
(-0.169995 -0.00199089 0)
(-0.169621 -0.00192248 0)
(-0.168621 -0.00184309 0)
(-0.166905 -0.00189492 0)
(-0.164152 -0.0021581 0)
(10.0008 0.122279 0)
(10.0676 0.272137 0)
(10.1383 0.342321 0)
(10.1915 0.367553 0)
(10.2161 0.377243 0)
(10.2123 0.385768 0)
(10.1866 0.395782 0)
(10.1458 0.40522 0)
(10.094 0.411968 0)
(10.033 0.415276 0)
(9.96332 0.415459 0)
(9.88493 0.413207 0)
(9.79809 0.409069 0)
(9.70347 0.403324 0)
(9.60188 0.396016 0)
(9.49435 0.3871 0)
(9.38179 0.376509 0)
(9.26524 0.364234 0)
(9.14544 0.350292 0)
(9.02324 0.334781 0)
(8.89948 0.317886 0)
(8.77497 0.299856 0)
(8.65049 0.280989 0)
(8.52676 0.261602 0)
(8.40443 0.242026 0)
(8.28407 0.22258 0)
(8.16619 0.203566 0)
(8.05121 0.185251 0)
(7.93946 0.167858 0)
(7.83124 0.151563 0)
(7.7267 0.136486 0)
(7.626 0.122701 0)
(7.52914 0.110229 0)
(7.43614 0.0990603 0)
(7.34691 0.0891437 0)
(7.26139 0.0804136 0)
(7.17934 0.0727797 0)
(7.10064 0.0661628 0)
(7.02513 0.0604835 0)
(6.95264 0.0556526 0)
(6.883 0.051573 0)
(6.81603 0.0481444 0)
(6.75154 0.0452698 0)
(6.68938 0.0428598 0)
(6.62936 0.0408358 0)
(6.57135 0.0391297 0)
(6.5152 0.0376841 0)
(6.46078 0.0364507 0)
(6.40797 0.0353895 0)
(6.35666 0.0344673 0)
(6.30675 0.0336569 0)
(6.25814 0.0329366 0)
(6.21076 0.0322886 0)
(6.16453 0.0316993 0)
(6.11937 0.031158 0)
(6.07522 0.0306564 0)
(6.03203 0.0301886 0)
(5.98973 0.0297501 0)
(5.94827 0.0293379 0)
(5.90761 0.0289499 0)
(5.8677 0.0285849 0)
(5.82848 0.0282423 0)
(5.78993 0.027922 0)
(5.75199 0.0276242 0)
(5.71463 0.0273495 0)
(5.6778 0.0270986 0)
(5.64148 0.0268722 0)
(5.60562 0.0266714 0)
(5.57018 0.0264971 0)
(5.53512 0.0263503 0)
(5.50041 0.0262321 0)
(5.46601 0.0261435 0)
(5.43189 0.0260853 0)
(5.398 0.0260585 0)
(5.3643 0.0260641 0)
(5.33076 0.0261031 0)
(5.29734 0.0261766 0)
(5.264 0.0262857 0)
(5.2307 0.0264315 0)
(5.19739 0.026615 0)
(5.16403 0.0268377 0)
(5.13058 0.0271006 0)
(5.097 0.0274051 0)
(5.06323 0.0277526 0)
(5.02923 0.0281444 0)
(4.99496 0.028582 0)
(4.96035 0.0290671 0)
(4.92536 0.0296011 0)
(4.88992 0.0301857 0)
(4.854 0.0308226 0)
(4.81752 0.0315137 0)
(4.78043 0.0322606 0)
(4.74266 0.0330653 0)
(4.70415 0.0339297 0)
(4.66482 0.0348556 0)
(4.62461 0.0358448 0)
(4.58345 0.0368993 0)
(4.54125 0.0380209 0)
(4.49794 0.0392113 0)
(4.45343 0.040472 0)
(4.40763 0.0418047 0)
(4.36046 0.0432106 0)
(4.31183 0.0446907 0)
(4.26163 0.0462456 0)
(4.20977 0.0478757 0)
(4.15614 0.0495803 0)
(4.10064 0.0513577 0)
(4.04316 0.0532056 0)
(3.98359 0.0551207 0)
(3.92182 0.0570989 0)
(3.85772 0.0591353 0)
(3.79119 0.0612236 0)
(3.72209 0.0633564 0)
(3.65033 0.0655248 0)
(3.57577 0.067718 0)
(3.4983 0.069923 0)
(3.41782 0.0721252 0)
(3.33422 0.0743072 0)
(3.2474 0.0764492 0)
(3.15728 0.0785287 0)
(3.06379 0.0805204 0)
(2.96686 0.082396 0)
(2.86647 0.0841247 0)
(2.76261 0.0856728 0)
(2.6553 0.0870043 0)
(2.54459 0.0880814 0)
(2.43058 0.0888648 0)
(2.31343 0.0893148 0)
(2.19335 0.0893923 0)
(2.07059 0.0890601 0)
(1.94551 0.0882841 0)
(1.81853 0.087036 0)
(1.69015 0.0852948 0)
(1.56098 0.0830503 0)
(1.43167 0.0803047 0)
(1.30299 0.077073 0)
(1.17574 0.073384 0)
(1.05075 0.0692846 0)
(0.92889 0.0648448 0)
(0.810957 0.0601625 0)
(0.697708 0.0553605 0)
(0.58979 0.0506072 0)
(0.487768 0.0460272 0)
(0.392068 0.0417319 0)
(0.303032 0.0377415 0)
(0.220924 0.0339504 0)
(0.145869 0.0301602 0)
(0.0778838 0.0262181 0)
(0.0171835 0.0221503 0)
(-0.0363374 0.0180586 0)
(-0.0829856 0.0142509 0)
(-0.123435 0.0109893 0)
(-0.158312 0.00836924 0)
(-0.187921 0.00610391 0)
(-0.212496 0.00393737 0)
(-0.232397 0.00198178 0)
(-0.248249 0.000444844 0)
(-0.260567 -0.000933234 0)
(-0.269491 -0.00265198 0)
(-0.274908 -0.00484267 0)
(10.0003 0.0614122 0)
(10.0359 0.160323 0)
(10.0898 0.227822 0)
(10.1516 0.268451 0)
(10.2101 0.293285 0)
(10.2592 0.312151 0)
(10.298 0.330012 0)
(10.3292 0.347479 0)
(10.3556 0.363365 0)
(10.3789 0.376571 0)
(10.3993 0.386699 0)
(10.4165 0.393928 0)
(10.4298 0.398642 0)
(10.4388 0.401149 0)
(10.4434 0.401592 0)
(10.4434 0.39998 0)
(10.4391 0.396273 0)
(10.4304 0.390449 0)
(10.4173 0.382568 0)
(10.4001 0.372761 0)
(10.3788 0.361212 0)
(10.3536 0.348155 0)
(10.3248 0.333859 0)
(10.2925 0.318623 0)
(10.2571 0.302756 0)
(10.219 0.286575 0)
(10.1783 0.270378 0)
(10.1356 0.254446 0)
(10.0912 0.239016 0)
(10.0453 0.224286 0)
(9.99844 0.210402 0)
(9.9508 0.197465 0)
(9.90266 0.185526 0)
(9.85428 0.174604 0)
(9.80581 0.164676 0)
(9.75746 0.155705 0)
(9.70931 0.147629 0)
(9.66148 0.140397 0)
(9.61406 0.133952 0)
(9.56709 0.12823 0)
(9.52057 0.123156 0)
(9.47453 0.118651 0)
(9.42895 0.114638 0)
(9.38383 0.111045 0)
(9.33917 0.107808 0)
(9.29496 0.104871 0)
(9.25119 0.102189 0)
(9.20784 0.0997228 0)
(9.16489 0.0974394 0)
(9.12233 0.0953123 0)
(9.08014 0.0933196 0)
(9.03831 0.0914433 0)
(8.99683 0.0896689 0)
(8.95568 0.087985 0)
(8.91486 0.0863827 0)
(8.87434 0.084855 0)
(8.83412 0.0833969 0)
(8.7942 0.0820045 0)
(8.75455 0.0806754 0)
(8.71516 0.0794078 0)
(8.67604 0.0782006 0)
(8.63716 0.0770534 0)
(8.59851 0.0759663 0)
(8.56008 0.0749396 0)
(8.52187 0.073974 0)
(8.48385 0.0730702 0)
(8.44601 0.0722295 0)
(8.40833 0.0714528 0)
(8.37081 0.0707416 0)
(8.33342 0.0700973 0)
(8.29614 0.0695213 0)
(8.25895 0.0690154 0)
(8.22184 0.0685813 0)
(8.18478 0.0682208 0)
(8.14774 0.0679358 0)
(8.1107 0.0677284 0)
(8.07364 0.0676004 0)
(8.03652 0.0675539 0)
(7.99932 0.0675912 0)
(7.962 0.0677146 0)
(7.92453 0.0679266 0)
(7.88688 0.0682298 0)
(7.84901 0.0686272 0)
(7.81087 0.0691217 0)
(7.77243 0.0697165 0)
(7.73364 0.070415 0)
(7.69445 0.0712209 0)
(7.65483 0.072138 0)
(7.6147 0.0731703 0)
(7.57403 0.0743223 0)
(7.53275 0.0755984 0)
(7.49081 0.0770035 0)
(7.44813 0.0785425 0)
(7.40465 0.0802208 0)
(7.3603 0.0820438 0)
(7.315 0.0840174 0)
(7.26868 0.0861473 0)
(7.22124 0.0884398 0)
(7.17261 0.0909011 0)
(7.12269 0.0935378 0)
(7.07138 0.0963563 0)
(7.01858 0.0993633 0)
(6.96418 0.102565 0)
(6.90805 0.105969 0)
(6.85009 0.109581 0)
(6.79016 0.113407 0)
(6.72814 0.117451 0)
(6.66387 0.121718 0)
(6.5972 0.126212 0)
(6.528 0.130934 0)
(6.45608 0.135887 0)
(6.38128 0.141069 0)
(6.30343 0.146478 0)
(6.22233 0.152109 0)
(6.13779 0.157958 0)
(6.04961 0.164013 0)
(5.95759 0.170262 0)
(5.8615 0.176689 0)
(5.76112 0.183273 0)
(5.65624 0.189988 0)
(5.54663 0.196803 0)
(5.43204 0.203679 0)
(5.31226 0.210571 0)
(5.18706 0.217426 0)
(5.05622 0.224182 0)
(4.91953 0.230768 0)
(4.77679 0.2371 0)
(4.62785 0.243084 0)
(4.47255 0.248616 0)
(4.3108 0.253577 0)
(4.14255 0.257834 0)
(3.96779 0.261243 0)
(3.78662 0.263649 0)
(3.59922 0.264888 0)
(3.40585 0.264794 0)
(3.20694 0.26321 0)
(3.00303 0.259989 0)
(2.79486 0.255011 0)
(2.58335 0.248194 0)
(2.36966 0.239515 0)
(2.1552 0.229019 0)
(1.94161 0.216837 0)
(1.73081 0.203186 0)
(1.52489 0.188365 0)
(1.32606 0.172727 0)
(1.13651 0.156662 0)
(0.958168 0.140569 0)
(0.792515 0.124854 0)
(0.640462 0.110091 0)
(0.501913 0.0966904 0)
(0.376539 0.0847984 0)
(0.264028 0.0740163 0)
(0.164055 0.0637336 0)
(0.0765375 0.0536313 0)
(0.000934545 0.0437469 0)
(-0.0636759 0.0346157 0)
(-0.118774 0.0266937 0)
(-0.165362 0.0197538 0)
(-0.203949 0.0128693 0)
(-0.234999 0.00576922 0)
(10.0002 0.0417812 0)
(10.0198 0.117276 0)
(10.0537 0.178916 0)
(10.0983 0.224502 0)
(10.1468 0.256569 0)
(10.1935 0.280048 0)
(10.2355 0.299309 0)
(10.2732 0.316685 0)
(10.3082 0.332559 0)
(10.3422 0.346427 0)
(10.376 0.357801 0)
(10.4096 0.366542 0)
(10.4428 0.372809 0)
(10.4748 0.376854 0)
(10.5055 0.378876 0)
(10.5345 0.378971 0)
(10.5616 0.377179 0)
(10.5867 0.373526 0)
(10.6096 0.36808 0)
(10.6301 0.360946 0)
(10.6482 0.352272 0)
(10.6636 0.342239 0)
(10.6764 0.33106 0)
(10.6863 0.318969 0)
(10.6935 0.306216 0)
(10.698 0.293055 0)
(10.6999 0.279731 0)
(10.6993 0.266477 0)
(10.6964 0.253497 0)
(10.6915 0.240965 0)
(10.6846 0.229022 0)
(10.6761 0.217771 0)
(10.6662 0.207282 0)
(10.655 0.197593 0)
(10.6427 0.188718 0)
(10.6295 0.180646 0)
(10.6156 0.173354 0)
(10.6011 0.166794 0)
(10.586 0.160907 0)
(10.5705 0.15563 0)
(10.5546 0.150902 0)
(10.5383 0.146665 0)
(10.5217 0.142861 0)
(10.5048 0.139439 0)
(10.4876 0.136351 0)
(10.4702 0.133551 0)
(10.4525 0.131002 0)
(10.4345 0.12867 0)
(10.4163 0.126525 0)
(10.3979 0.124541 0)
(10.3792 0.122697 0)
(10.3603 0.120974 0)
(10.3412 0.119357 0)
(10.3218 0.117833 0)
(10.3021 0.116393 0)
(10.2822 0.115027 0)
(10.2621 0.113731 0)
(10.2417 0.112499 0)
(10.2211 0.111327 0)
(10.2003 0.110215 0)
(10.1792 0.10916 0)
(10.1578 0.108162 0)
(10.1363 0.107222 0)
(10.1144 0.106339 0)
(10.0924 0.105515 0)
(10.0701 0.104753 0)
(10.0475 0.104053 0)
(10.0247 0.103417 0)
(10.0017 0.102849 0)
(9.97835 0.10235 0)
(9.95478 0.101924 0)
(9.93094 0.101574 0)
(9.90683 0.101303 0)
(9.88243 0.101114 0)
(9.85774 0.101011 0)
(9.83274 0.100999 0)
(9.80743 0.10108 0)
(9.78178 0.101259 0)
(9.75578 0.101539 0)
(9.72941 0.101927 0)
(9.70266 0.102425 0)
(9.6755 0.10304 0)
(9.64791 0.103775 0)
(9.61987 0.104637 0)
(9.59134 0.105631 0)
(9.5623 0.106763 0)
(9.53271 0.10804 0)
(9.50254 0.109468 0)
(9.47176 0.111053 0)
(9.44032 0.112805 0)
(9.40818 0.114729 0)
(9.3753 0.116835 0)
(9.34162 0.119132 0)
(9.30709 0.121627 0)
(9.27166 0.12433 0)
(9.23526 0.127252 0)
(9.19783 0.130402 0)
(9.1593 0.133791 0)
(9.1196 0.137431 0)
(9.07864 0.141333 0)
(9.03635 0.145508 0)
(8.99263 0.149969 0)
(8.94739 0.154729 0)
(8.90051 0.1598 0)
(8.85191 0.165195 0)
(8.80145 0.170927 0)
(8.74901 0.177009 0)
(8.69446 0.183454 0)
(8.63766 0.190275 0)
(8.57845 0.197483 0)
(8.51669 0.20509 0)
(8.45219 0.213106 0)
(8.38477 0.221539 0)
(8.31424 0.230397 0)
(8.2404 0.239685 0)
(8.16302 0.249406 0)
(8.08189 0.259559 0)
(7.99674 0.270141 0)
(7.90733 0.281144 0)
(7.81337 0.292555 0)
(7.71458 0.304355 0)
(7.61066 0.31652 0)
(7.50128 0.329017 0)
(7.38611 0.341803 0)
(7.26481 0.354826 0)
(7.137 0.368024 0)
(7.00233 0.381319 0)
(6.8604 0.394621 0)
(6.71083 0.407822 0)
(6.55321 0.420799 0)
(6.38717 0.433407 0)
(6.21232 0.445481 0)
(6.02829 0.456835 0)
(5.83475 0.467255 0)
(5.6314 0.476502 0)
(5.41799 0.484311 0)
(5.19434 0.490394 0)
(4.96038 0.494446 0)
(4.71614 0.496147 0)
(4.46182 0.495167 0)
(4.19782 0.491171 0)
(3.92475 0.483835 0)
(3.64357 0.472856 0)
(3.35554 0.457997 0)
(3.06236 0.439117 0)
(2.76623 0.41622 0)
(2.4699 0.38952 0)
(2.1767 0.359485 0)
(1.89051 0.326857 0)
(1.61553 0.292722 0)
(1.35609 0.258374 0)
(1.11623 0.225168 0)
(0.898981 0.194136 0)
(0.705983 0.166285 0)
(0.536277 0.142276 0)
(0.387607 0.121912 0)
(0.257694 0.103804 0)
(0.145378 0.0864618 0)
(0.0496167 0.0690506 0)
(-0.0313485 0.0517708 0)
(10.0001 0.0316627 0)
(10.0128 0.0917412 0)
(10.036 0.145038 0)
(10.0682 0.188698 0)
(10.1059 0.222282 0)
(10.1451 0.247719 0)
(10.1829 0.267814 0)
(10.2183 0.284868 0)
(10.2518 0.299981 0)
(10.2843 0.313283 0)
(10.3168 0.324518 0)
(10.3498 0.333474 0)
(10.383 0.340134 0)
(10.4162 0.344636 0)
(10.449 0.347157 0)
(10.4811 0.347848 0)
(10.5124 0.34681 0)
(10.5427 0.344122 0)
(10.5719 0.339862 0)
(10.5998 0.334131 0)
(10.6264 0.327055 0)
(10.6514 0.318791 0)
(10.6747 0.309514 0)
(10.6961 0.299422 0)
(10.7158 0.288723 0)
(10.7335 0.277625 0)
(10.7493 0.266337 0)
(10.7632 0.255052 0)
(10.7754 0.243944 0)
(10.7859 0.233167 0)
(10.7948 0.222843 0)
(10.8024 0.213071 0)
(10.8087 0.203919 0)
(10.8139 0.195431 0)
(10.8182 0.187628 0)
(10.8216 0.180509 0)
(10.8243 0.174058 0)
(10.8263 0.168239 0)
(10.8278 0.163007 0)
(10.8289 0.158311 0)
(10.8295 0.154106 0)
(10.8297 0.150344 0)
(10.8296 0.146984 0)
(10.8291 0.143982 0)
(10.8284 0.141299 0)
(10.8273 0.138896 0)
(10.826 0.136739 0)
(10.8244 0.134796 0)
(10.8225 0.133039 0)
(10.8203 0.131443 0)
(10.8179 0.129986 0)
(10.8152 0.128652 0)
(10.8122 0.127423 0)
(10.8089 0.126288 0)
(10.8053 0.125236 0)
(10.8014 0.12426 0)
(10.7972 0.123351 0)
(10.7926 0.122507 0)
(10.7878 0.121722 0)
(10.7827 0.120996 0)
(10.7772 0.120326 0)
(10.7714 0.119712 0)
(10.7653 0.119155 0)
(10.7588 0.118656 0)
(10.7521 0.118215 0)
(10.7449 0.117835 0)
(10.7375 0.117519 0)
(10.7297 0.117269 0)
(10.7216 0.117087 0)
(10.7131 0.116978 0)
(10.7042 0.116944 0)
(10.695 0.116991 0)
(10.6855 0.117121 0)
(10.6755 0.117339 0)
(10.6652 0.117649 0)
(10.6545 0.118057 0)
(10.6434 0.118568 0)
(10.6319 0.119186 0)
(10.62 0.119917 0)
(10.6077 0.120768 0)
(10.5949 0.121744 0)
(10.5817 0.122851 0)
(10.5679 0.124097 0)
(10.5537 0.125489 0)
(10.539 0.127035 0)
(10.5238 0.128741 0)
(10.508 0.130618 0)
(10.4917 0.132673 0)
(10.4747 0.134916 0)
(10.4571 0.137358 0)
(10.4389 0.140008 0)
(10.4199 0.142877 0)
(10.4002 0.145978 0)
(10.3798 0.149322 0)
(10.3586 0.152922 0)
(10.3365 0.156792 0)
(10.3135 0.160946 0)
(10.2895 0.165397 0)
(10.2645 0.170163 0)
(10.2385 0.175259 0)
(10.2113 0.180701 0)
(10.183 0.186508 0)
(10.1533 0.192696 0)
(10.1223 0.199286 0)
(10.0899 0.206295 0)
(10.0559 0.213744 0)
(10.0203 0.221654 0)
(9.98299 0.230044 0)
(9.9438 0.238936 0)
(9.90263 0.248351 0)
(9.85936 0.258309 0)
(9.81383 0.268831 0)
(9.7659 0.279938 0)
(9.71541 0.291649 0)
(9.66217 0.303981 0)
(9.60599 0.316953 0)
(9.54668 0.330578 0)
(9.48401 0.344869 0)
(9.41774 0.359835 0)
(9.34761 0.37548 0)
(9.27336 0.391805 0)
(9.19469 0.408805 0)
(9.11128 0.426467 0)
(9.0228 0.444773 0)
(8.92887 0.463693 0)
(8.82912 0.483187 0)
(8.72312 0.503204 0)
(8.61043 0.523676 0)
(8.49057 0.544523 0)
(8.36306 0.565643 0)
(8.22735 0.586915 0)
(8.0829 0.608196 0)
(7.92911 0.629316 0)
(7.76538 0.650076 0)
(7.59107 0.670245 0)
(7.40555 0.689552 0)
(7.20815 0.707697 0)
(6.99824 0.72434 0)
(6.7752 0.739106 0)
(6.53843 0.751587 0)
(6.2874 0.761339 0)
(6.0217 0.767885 0)
(5.74105 0.77072 0)
(5.44535 0.769305 0)
(5.13473 0.763083 0)
(4.80963 0.751508 0)
(4.47089 0.734051 0)
(4.11984 0.71025 0)
(3.75838 0.679736 0)
(3.38913 0.642361 0)
(3.01554 0.598267 0)
(2.64221 0.548036 0)
(2.27491 0.492801 0)
(1.92067 0.434388 0)
(1.5871 0.375363 0)
(1.28153 0.318822 0)
(1.00966 0.267475 0)
(0.774646 0.223037 0)
(0.574968 0.186057 0)
(0.40502 0.154977 0)
(10.0001 0.0253327 0)
(10.0092 0.0742931 0)
(10.0261 0.11944 0)
(10.0502 0.158589 0)
(10.0797 0.190696 0)
(10.1121 0.216192 0)
(10.1451 0.236531 0)
(10.1773 0.253354 0)
(10.2083 0.267845 0)
(10.2386 0.280502 0)
(10.2688 0.291331 0)
(10.2993 0.300187 0)
(10.3301 0.306981 0)
(10.3611 0.311755 0)
(10.3921 0.314637 0)
(10.4226 0.315779 0)
(10.4527 0.315318 0)
(10.482 0.313361 0)
(10.5106 0.310001 0)
(10.5383 0.305337 0)
(10.5649 0.299481 0)
(10.5905 0.292567 0)
(10.6148 0.284746 0)
(10.6378 0.276185 0)
(10.6594 0.267062 0)
(10.6795 0.257554 0)
(10.6982 0.247837 0)
(10.7155 0.238079 0)
(10.7314 0.228431 0)
(10.746 0.219025 0)
(10.7594 0.209974 0)
(10.7717 0.201366 0)
(10.7829 0.193267 0)
(10.7933 0.185721 0)
(10.8029 0.178752 0)
(10.8119 0.172365 0)
(10.8203 0.16655 0)
(10.8281 0.161282 0)
(10.8356 0.156531 0)
(10.8427 0.15226 0)
(10.8494 0.148432 0)
(10.8559 0.145012 0)
(10.8622 0.141964 0)
(10.8682 0.139252 0)
(10.874 0.136843 0)
(10.8797 0.134703 0)
(10.8851 0.132801 0)
(10.8904 0.131108 0)
(10.8956 0.129599 0)
(10.9005 0.12825 0)
(10.9053 0.127042 0)
(10.9099 0.125958 0)
(10.9144 0.124983 0)
(10.9186 0.124105 0)
(10.9227 0.123315 0)
(10.9265 0.122605 0)
(10.9302 0.121967 0)
(10.9336 0.121398 0)
(10.9368 0.120893 0)
(10.9398 0.120452 0)
(10.9426 0.120072 0)
(10.9452 0.119752 0)
(10.9475 0.119495 0)
(10.9495 0.119299 0)
(10.9513 0.119167 0)
(10.9529 0.119102 0)
(10.9542 0.119104 0)
(10.9552 0.119178 0)
(10.956 0.119327 0)
(10.9565 0.119553 0)
(10.9567 0.119862 0)
(10.9566 0.120257 0)
(10.9563 0.120742 0)
(10.9556 0.121323 0)
(10.9547 0.122005 0)
(10.9534 0.122791 0)
(10.9518 0.12369 0)
(10.9499 0.124705 0)
(10.9477 0.125844 0)
(10.9451 0.127114 0)
(10.9422 0.128521 0)
(10.9389 0.130072 0)
(10.9352 0.131777 0)
(10.9311 0.133643 0)
(10.9267 0.135679 0)
(10.9218 0.137894 0)
(10.9165 0.140298 0)
(10.9107 0.142902 0)
(10.9045 0.145717 0)
(10.8978 0.148754 0)
(10.8905 0.152027 0)
(10.8828 0.155547 0)
(10.8744 0.159328 0)
(10.8655 0.163386 0)
(10.856 0.167735 0)
(10.8459 0.172392 0)
(10.835 0.177374 0)
(10.8235 0.182698 0)
(10.8111 0.188383 0)
(10.798 0.194449 0)
(10.7841 0.200916 0)
(10.7693 0.207807 0)
(10.7535 0.215144 0)
(10.7368 0.22295 0)
(10.719 0.231249 0)
(10.7001 0.240068 0)
(10.68 0.249432 0)
(10.6586 0.25937 0)
(10.6359 0.269908 0)
(10.6117 0.281076 0)
(10.586 0.292903 0)
(10.5587 0.30542 0)
(10.5297 0.318655 0)
(10.4988 0.33264 0)
(10.4659 0.347404 0)
(10.4308 0.362977 0)
(10.3935 0.379387 0)
(10.3536 0.39666 0)
(10.3112 0.414823 0)
(10.2659 0.433897 0)
(10.2175 0.453902 0)
(10.1658 0.474852 0)
(10.1106 0.496759 0)
(10.0515 0.519625 0)
(9.9882 0.543448 0)
(9.92045 0.568214 0)
(9.84783 0.593901 0)
(9.76995 0.620473 0)
(9.68637 0.64788 0)
(9.59661 0.676056 0)
(9.50015 0.704914 0)
(9.39643 0.734347 0)
(9.28484 0.764221 0)
(9.16473 0.794377 0)
(9.03536 0.824625 0)
(8.89599 0.854743 0)
(8.74579 0.884474 0)
(8.5839 0.913521 0)
(8.4094 0.941547 0)
(8.22134 0.968168 0)
(8.01873 0.992959 0)
(7.80057 1.01544 0)
(7.56587 1.03508 0)
(7.31361 1.05127 0)
(7.04288 1.06336 0)
(6.75283 1.07061 0)
(6.4428 1.07225 0)
(6.11229 1.06748 0)
(5.76116 1.05549 0)
(5.38966 1.03547 0)
(4.99855 1.00668 0)
(4.58935 0.968461 0)
(4.16446 0.920325 0)
(3.72741 0.862012 0)
(3.28297 0.793704 0)
(2.83753 0.716332 0)
(2.39941 0.631838 0)
(1.97928 0.543444 0)
(1.58936 0.455717 0)
(1.24082 0.374238 0)
(10.0001 0.020837 0)
(10.007 0.061506 0)
(10.02 0.0997289 0)
(10.0387 0.134103 0)
(10.0623 0.163617 0)
(10.0892 0.188086 0)
(10.1177 0.208099 0)
(10.1466 0.224641 0)
(10.1751 0.23866 0)
(10.2033 0.250749 0)
(10.2314 0.261109 0)
(10.2596 0.269714 0)
(10.2882 0.27649 0)
(10.317 0.281431 0)
(10.3459 0.284612 0)
(10.3745 0.28616 0)
(10.4028 0.286212 0)
(10.4305 0.284887 0)
(10.4576 0.282291 0)
(10.4839 0.27852 0)
(10.5094 0.27368 0)
(10.5339 0.267886 0)
(10.5574 0.261269 0)
(10.5798 0.253973 0)
(10.6011 0.246148 0)
(10.6212 0.237949 0)
(10.64 0.229527 0)
(10.6576 0.221024 0)
(10.6741 0.212574 0)
(10.6895 0.204293 0)
(10.7038 0.196281 0)
(10.7172 0.188619 0)
(10.7298 0.18137 0)
(10.7415 0.174577 0)
(10.7526 0.168265 0)
(10.7631 0.162445 0)
(10.7731 0.157115 0)
(10.7827 0.152261 0)
(10.7919 0.147862 0)
(10.8007 0.143893 0)
(10.8093 0.140326 0)
(10.8177 0.137131 0)
(10.8259 0.13428 0)
(10.8339 0.131743 0)
(10.8418 0.12949 0)
(10.8495 0.127493 0)
(10.8571 0.125725 0)
(10.8646 0.124159 0)
(10.872 0.122774 0)
(10.8793 0.121548 0)
(10.8865 0.120463 0)
(10.8936 0.119505 0)
(10.9006 0.11866 0)
(10.9075 0.117916 0)
(10.9142 0.117264 0)
(10.9208 0.116698 0)
(10.9274 0.11621 0)
(10.9337 0.115797 0)
(10.94 0.115454 0)
(10.9461 0.11518 0)
(10.9521 0.114974 0)
(10.9579 0.114834 0)
(10.9635 0.114762 0)
(10.9691 0.114758 0)
(10.9744 0.114823 0)
(10.9796 0.11496 0)
(10.9846 0.115171 0)
(10.9894 0.115459 0)
(10.9941 0.115828 0)
(10.9986 0.116281 0)
(11.0028 0.116821 0)
(11.0069 0.117454 0)
(11.0108 0.118185 0)
(11.0145 0.119017 0)
(11.018 0.119956 0)
(11.0213 0.121008 0)
(11.0243 0.122179 0)
(11.0272 0.123476 0)
(11.0298 0.124904 0)
(11.0321 0.126472 0)
(11.0342 0.128188 0)
(11.0361 0.130058 0)
(11.0377 0.132092 0)
(11.039 0.134299 0)
(11.04 0.136688 0)
(11.0407 0.13927 0)
(11.0412 0.142055 0)
(11.0413 0.145055 0)
(11.0411 0.148282 0)
(11.0406 0.151749 0)
(11.0396 0.15547 0)
(11.0384 0.159458 0)
(11.0367 0.163729 0)
(11.0346 0.168299 0)
(11.0322 0.173186 0)
(11.0292 0.178406 0)
(11.0258 0.183978 0)
(11.0219 0.189924 0)
(11.0175 0.196263 0)
(11.0126 0.203018 0)
(11.0071 0.210212 0)
(11.001 0.21787 0)
(10.9942 0.226016 0)
(10.9868 0.234679 0)
(10.9787 0.243886 0)
(10.9698 0.253666 0)
(10.9602 0.264051 0)
(10.9497 0.275073 0)
(10.9383 0.286763 0)
(10.926 0.299158 0)
(10.9126 0.312293 0)
(10.8982 0.326203 0)
(10.8826 0.340927 0)
(10.8658 0.356504 0)
(10.8477 0.372971 0)
(10.8282 0.390368 0)
(10.8072 0.408735 0)
(10.7845 0.428111 0)
(10.7601 0.448533 0)
(10.7338 0.47004 0)
(10.7055 0.492667 0)
(10.6749 0.516446 0)
(10.642 0.541408 0)
(10.6065 0.567579 0)
(10.5682 0.59498 0)
(10.5268 0.623625 0)
(10.4821 0.65352 0)
(10.4337 0.684661 0)
(10.3814 0.717036 0)
(10.3246 0.750616 0)
(10.2631 0.785357 0)
(10.1964 0.821197 0)
(10.1238 0.858054 0)
(10.045 0.895822 0)
(9.9591 0.934371 0)
(9.86555 0.97354 0)
(9.76354 1.01314 0)
(9.65223 1.05292 0)
(9.5307 1.09263 0)
(9.39792 1.13195 0)
(9.25283 1.17049 0)
(9.09422 1.20783 0)
(8.92087 1.24348 0)
(8.73142 1.27688 0)
(8.52449 1.30742 0)
(8.29864 1.3344 0)
(8.05242 1.35703 0)
(7.78437 1.37446 0)
(7.49311 1.3858 0)
(7.17734 1.39003 0)
(6.83596 1.38608 0)
(6.4682 1.37282 0)
(6.07369 1.34909 0)
(5.6527 1.31375 0)
(5.20622 1.26573 0)
(4.73633 1.20421 0)
(4.24651 1.12871 0)
(3.74199 1.03926 0)
(3.23014 0.936582 0)
(2.72089 0.822792 0)
(10.0001 0.017442 0)
(10.0056 0.0516767 0)
(10.016 0.0842459 0)
(10.0311 0.114219 0)
(10.0503 0.14079 0)
(10.0729 0.163585 0)
(10.0976 0.182739 0)
(10.1233 0.198759 0)
(10.1494 0.212282 0)
(10.1755 0.223829 0)
(10.2017 0.233687 0)
(10.2281 0.241932 0)
(10.2547 0.248547 0)
(10.2816 0.253521 0)
(10.3085 0.256895 0)
(10.3354 0.258761 0)
(10.3621 0.259238 0)
(10.3883 0.258443 0)
(10.4139 0.256484 0)
(10.4389 0.253459 0)
(10.4632 0.249466 0)
(10.4867 0.244611 0)
(10.5093 0.239007 0)
(10.531 0.232778 0)
(10.5516 0.226055 0)
(10.5712 0.218969 0)
(10.5897 0.211653 0)
(10.6072 0.20423 0)
(10.6236 0.196815 0)
(10.6391 0.189511 0)
(10.6537 0.182408 0)
(10.6674 0.175578 0)
(10.6803 0.169079 0)
(10.6925 0.162954 0)
(10.704 0.15723 0)
(10.715 0.151921 0)
(10.7256 0.147031 0)
(10.7357 0.142555 0)
(10.7454 0.138479 0)
(10.7548 0.134785 0)
(10.764 0.131454 0)
(10.7729 0.128461 0)
(10.7817 0.125783 0)
(10.7903 0.123394 0)
(10.7987 0.12127 0)
(10.807 0.119386 0)
(10.8152 0.117718 0)
(10.8233 0.116245 0)
(10.8313 0.114947 0)
(10.8392 0.113805 0)
(10.847 0.112804 0)
(10.8548 0.111929 0)
(10.8625 0.111168 0)
(10.87 0.110512 0)
(10.8775 0.109951 0)
(10.8849 0.109478 0)
(10.8923 0.109088 0)
(10.8995 0.108777 0)
(10.9066 0.108541 0)
(10.9136 0.108378 0)
(10.9206 0.108286 0)
(10.9274 0.108266 0)
(10.9341 0.108317 0)
(10.9407 0.10844 0)
(10.9472 0.108637 0)
(10.9535 0.10891 0)
(10.9598 0.109261 0)
(10.9659 0.109694 0)
(10.9719 0.110211 0)
(10.9778 0.110816 0)
(10.9835 0.111514 0)
(10.9891 0.112308 0)
(10.9945 0.113204 0)
(10.9998 0.114207 0)
(11.005 0.115322 0)
(11.01 0.116555 0)
(11.0148 0.117912 0)
(11.0195 0.119401 0)
(11.024 0.121027 0)
(11.0283 0.1228 0)
(11.0325 0.124726 0)
(11.0365 0.126815 0)
(11.0403 0.129075 0)
(11.0439 0.131516 0)
(11.0473 0.134148 0)
(11.0505 0.136981 0)
(11.0534 0.140028 0)
(11.0562 0.143301 0)
(11.0587 0.146811 0)
(11.061 0.150573 0)
(11.063 0.1546 0)
(11.0648 0.158909 0)
(11.0663 0.163515 0)
(11.0675 0.168435 0)
(11.0684 0.173687 0)
(11.069 0.17929 0)
(11.0693 0.185264 0)
(11.0692 0.19163 0)
(11.0688 0.198411 0)
(11.0681 0.205629 0)
(11.0669 0.213311 0)
(11.0654 0.221482 0)
(11.0634 0.230169 0)
(11.061 0.239402 0)
(11.0581 0.249211 0)
(11.0547 0.259627 0)
(11.0508 0.270684 0)
(11.0464 0.282417 0)
(11.0413 0.294863 0)
(11.0357 0.308058 0)
(11.0294 0.322043 0)
(11.0225 0.336859 0)
(11.0148 0.352547 0)
(11.0063 0.369152 0)
(10.9971 0.386718 0)
(10.9869 0.405291 0)
(10.9758 0.424919 0)
(10.9637 0.445647 0)
(10.9505 0.467524 0)
(10.9362 0.490598 0)
(10.9206 0.514917 0)
(10.9037 0.540526 0)
(10.8852 0.567472 0)
(10.8652 0.595796 0)
(10.8435 0.625539 0)
(10.8198 0.656736 0)
(10.7941 0.689419 0)
(10.7661 0.723612 0)
(10.7356 0.759333 0)
(10.7023 0.796587 0)
(10.6659 0.835371 0)
(10.6262 0.875668 0)
(10.5826 0.917446 0)
(10.5349 0.960653 0)
(10.4824 1.00522 0)
(10.4247 1.05105 0)
(10.3612 1.09803 0)
(10.2911 1.14599 0)
(10.2136 1.19475 0)
(10.128 1.24407 0)
(10.0333 1.29368 0)
(9.92828 1.34324 0)
(9.81187 1.39235 0)
(9.68272 1.44057 0)
(9.53942 1.48735 0)
(9.3804 1.5321 0)
(9.20401 1.5741 0)
(9.00847 1.61258 0)
(8.79189 1.64662 0)
(8.55232 1.67525 0)
(8.28776 1.69737 0)
(7.99627 1.71176 0)
(7.67595 1.71713 0)
(7.32512 1.71206 0)
(6.94231 1.69506 0)
(6.52659 1.66458 0)
(6.0777 1.61911 0)
(5.59636 1.55718 0)
(5.08444 1.47756 0)
(4.54566 1.3795 0)
(10 0.0147646 0)
(10.0046 0.0438383 0)
(10.0132 0.0717483 0)
(10.0257 0.0978081 0)
(10.0419 0.121427 0)
(10.0611 0.142213 0)
(10.0826 0.160095 0)
(10.1056 0.175286 0)
(10.1293 0.188164 0)
(10.1535 0.199118 0)
(10.1779 0.208428 0)
(10.2025 0.216231 0)
(10.2274 0.222566 0)
(10.2526 0.22744 0)
(10.278 0.230881 0)
(10.3033 0.232955 0)
(10.3285 0.233755 0)
(10.3533 0.233386 0)
(10.3778 0.23195 0)
(10.4016 0.229546 0)
(10.4249 0.226267 0)
(10.4474 0.222208 0)
(10.4692 0.21747 0)
(10.4901 0.212162 0)
(10.5102 0.206396 0)
(10.5293 0.200285 0)
(10.5475 0.193944 0)
(10.5648 0.187479 0)
(10.5812 0.180991 0)
(10.5966 0.174571 0)
(10.6113 0.168296 0)
(10.6251 0.162233 0)
(10.6382 0.156435 0)
(10.6506 0.150942 0)
(10.6625 0.145783 0)
(10.6738 0.140974 0)
(10.6846 0.136523 0)
(10.695 0.13243 0)
(10.705 0.128687 0)
(10.7147 0.125283 0)
(10.7242 0.122203 0)
(10.7334 0.119427 0)
(10.7423 0.116937 0)
(10.7512 0.114711 0)
(10.7598 0.112728 0)
(10.7683 0.110968 0)
(10.7767 0.109412 0)
(10.785 0.10804 0)
(10.7932 0.106834 0)
(10.8013 0.10578 0)
(10.8092 0.104863 0)
(10.8172 0.10407 0)
(10.825 0.103391 0)
(10.8327 0.102815 0)
(10.8404 0.102336 0)
(10.848 0.101947 0)
(10.8555 0.101643 0)
(10.8629 0.101419 0)
(10.8702 0.101272 0)
(10.8775 0.101201 0)
(10.8846 0.101204 0)
(10.8917 0.10128 0)
(10.8986 0.101431 0)
(10.9055 0.101656 0)
(10.9123 0.101958 0)
(10.919 0.102338 0)
(10.9256 0.102799 0)
(10.932 0.103343 0)
(10.9384 0.103976 0)
(10.9447 0.104699 0)
(10.9508 0.105517 0)
(10.9568 0.106435 0)
(10.9628 0.107457 0)
(10.9686 0.10859 0)
(10.9742 0.109838 0)
(10.9798 0.111207 0)
(10.9852 0.112705 0)
(10.9905 0.114338 0)
(10.9957 0.116113 0)
(11.0007 0.118039 0)
(11.0056 0.120122 0)
(11.0103 0.122374 0)
(11.0149 0.124802 0)
(11.0194 0.127416 0)
(11.0237 0.130227 0)
(11.0278 0.133246 0)
(11.0317 0.136485 0)
(11.0355 0.139957 0)
(11.0391 0.143674 0)