/*--------------------------------*- C++ -*----------------------------------*\
| =========                 |                                                 |
| \\      /  F ield         | OpenFOAM: The Open Source CFD Toolbox           |
|  \\    /   O peration     | Version:  2306                                  |
|   \\  /    A nd           | Website:  www.openfoam.com                      |
|    \\/     M anipulation  |                                                 |
\*---------------------------------------------------------------------------*/
FoamFile
{
    version     2.0;
    format      ascii;
    arch        "LSB;label=32;scalar=64";
    class       volScalarField;
    location    "0.05";
    object      p;
}
// * * * * * * * * * * * * * * * * * * * * * * * * * * * * * * * * * * * * * //

dimensions      [0 2 -2 0 0 0 0];

internalField   nonuniform List<scalar> 
17600
(
372.008
369.964
368.186
366.955
366.192
365.684
365.266
364.858
364.44
364.015
363.594
363.18
362.775
362.376
361.983
361.595
361.212
360.838
360.476
360.128
359.799
359.49
359.206
358.947
358.713
358.506
358.324
358.166
358.03
357.912
357.811
357.724
357.647
357.578
357.516
357.457
357.402
357.348
357.295
357.241
357.188
357.133
357.077
357.021
356.963
356.906
356.847
356.788
356.73
356.671
356.613
356.556
356.499
356.443
356.388
356.334
356.281
356.228
356.177
356.126
356.077
356.029
355.981
355.935
355.89
355.846
355.803
355.762
355.721
355.681
355.641
355.603
355.565
355.527
355.49
355.453
355.417
355.381
355.345
355.309
355.273
355.238
355.203
355.169
355.135
355.102
355.07
355.039
355.009
354.98
354.952
354.926
354.901
354.878
354.857
354.837
354.82
354.805
354.793
354.784
354.777
354.774
354.774
354.778
354.785
354.797
354.812
354.833
354.857
354.887
354.922
354.962
355.008
355.06
355.119
355.184
355.256
355.336
355.423
355.52
355.624
355.739
355.863
355.998
356.143
356.3
356.469
356.65
356.845
357.054
357.276
357.514
357.767
358.035
358.32
358.622
358.942
359.278
359.633
360.005
360.396
360.806
361.233
361.678
362.141
362.622
363.119
363.633
364.161
364.704
365.26
365.828
366.407
366.994
367.587
368.186
368.786
369.387
369.986
370.581
369.279
368.509
367.582
366.718
366.027
365.504
365.083
364.7
364.319
363.929
363.534
363.138
362.747
362.361
361.981
361.605
361.236
360.875
360.525
360.188
359.869
359.569
359.29
359.034
358.802
358.594
358.411
358.249
358.108
357.986
357.879
357.786
357.704
357.63
357.562
357.499
357.438
357.38
357.323
357.266
357.209
357.151
357.093
357.035
356.976
356.916
356.856
356.797
356.737
356.678
356.619
356.561
356.504
356.447
356.391
356.337
356.283
356.23
356.178
356.127
356.078
356.029
355.982
355.935
355.89
355.846
355.803
355.761
355.72
355.68
355.641
355.602
355.564
355.527
355.49
355.453
355.417
355.381
355.345
355.309
355.273
355.238
355.203
355.169
355.135
355.102
355.07
355.039
355.009
354.98
354.952
354.926
354.901
354.878
354.856
354.837
354.819
354.804
354.792
354.783
354.776
354.773
354.773
354.776
354.784
354.795
354.811
354.831
354.856
354.885
354.92
354.96
355.006
355.058
355.117
355.182
355.254
355.334
355.421
355.517
355.622
355.736
355.861
355.995
356.141
356.298
356.467
356.648
356.843
357.052
357.275
357.513
357.766
358.035
358.321
358.624
358.944
359.282
359.638
360.012
360.404
360.815
361.245
361.693
362.158
362.642
363.142
363.659
364.192
364.739
365.299
365.871
366.453
367.044
367.641
368.242
368.845
369.447
370.047
370.641
367.975
367.625
367.096
366.483
365.891
365.376
364.943
364.562
364.201
363.838
363.47
363.097
362.724
362.355
361.991
361.634
361.284
360.942
360.611
360.292
359.988
359.7
359.43
359.181
358.952
358.744
358.557
358.391
358.242
358.111
357.994
357.89
357.797
357.712
357.635
357.562
357.494
357.429
357.365
357.302
357.24
357.178
357.117
357.055
356.993
356.932
356.87
356.809
356.748
356.688
356.628
356.57
356.512
356.454
356.398
356.343
356.289
356.236
356.184
356.132
356.082
356.034
355.986
355.939
355.894
355.849
355.806
355.764
355.722
355.682
355.642
355.603
355.565
355.527
355.489
355.452
355.415
355.379
355.343
355.307
355.271
355.235
355.2
355.166
355.132
355.099
355.066
355.035
355.005
354.976
354.948
354.921
354.896
354.872
354.85
354.831
354.813
354.797
354.784
354.774
354.767
354.762
354.762
354.765
354.771
354.782
354.796
354.816
354.839
354.868
354.901
354.94
354.985
355.035
355.092
355.156
355.226
355.304
355.39
355.484
355.587
355.699
355.82
355.952
356.095
356.249
356.416
356.594
356.786
356.991
357.211
357.445
357.695
357.961
358.243
358.542
358.858
359.192
359.545
359.915
360.304
360.712
361.139
361.584
362.048
362.529
363.029
363.545
364.077
364.624
365.186
365.759
366.344
366.938
367.539
368.144
368.753
369.361
369.967
370.568
367.072
366.879
366.546
366.11
365.635
365.179
364.767
364.399
364.055
363.717
363.377
363.031
362.682
362.335
361.991
361.654
361.324
361.002
360.69
360.388
360.099
359.825
359.566
359.324
359.1
358.894
358.707
358.537
358.384
358.245
358.121
358.008
357.906
357.812
357.726
357.645
357.569
357.496
357.425
357.356
357.289
357.222
357.156
357.091
357.027
356.963
356.899
356.836
356.773
356.711
356.65
356.59
356.531
356.473
356.415
356.359
356.304
356.25
356.197
356.145
356.094
356.044
355.996
355.948
355.902
355.857
355.812
355.769
355.727
355.685
355.645
355.605
355.565
355.527
355.488
355.45
355.413
355.376
355.339
355.302
355.266
355.23
355.195
355.16
355.126
355.092
355.06
355.028
354.997
354.968
354.939
354.912
354.887
354.863
354.84
354.819
354.801
354.784
354.771
354.759
354.751
354.745
354.743
354.745
354.75
354.759
354.772
354.789
354.811
354.837
354.868
354.905
354.947
354.995
355.049
355.11
355.177
355.252
355.334
355.424
355.523
355.631
355.748
355.875
356.013
356.162
356.323
356.496
356.682
356.881
357.094
357.321
357.564
357.822
358.096
358.388
358.696
359.022
359.366
359.728
360.109
360.509
360.928
361.365
361.821
362.296
362.789
363.299
363.827
364.37
364.928
365.5
366.084
366.679
367.282
367.891
368.505
369.12
369.735
370.347
366.386
366.261
366.033
365.715
365.344
364.958
364.587
364.241
363.916
363.599
363.283
362.962
362.637
362.312
361.989
361.671
361.36
361.056
360.76
360.474
360.199
359.937
359.688
359.454
359.235
359.032
358.845
358.673
358.517
358.373
358.243
358.123
358.013
357.912
357.818
357.729
357.646
357.566
357.489
357.414
357.342
357.271
357.201
357.132
357.065
356.998
356.932
356.866
356.802
356.738
356.676
356.615
356.554
356.494
356.436
356.379
356.323
356.267
356.213
356.16
356.108
356.058
356.008
355.96
355.912
355.866
355.821
355.776
355.733
355.69
355.648
355.607
355.567
355.527
355.488
355.449
355.41
355.372
355.334
355.297
355.26
355.224
355.188
355.152
355.118
355.084
355.05
355.018
354.987
354.957
354.928
354.9
354.874
354.849
354.826
354.804
354.785
354.767
354.752
354.74
354.73
354.723
354.719
354.718
354.722
354.728
354.739
354.754
354.773
354.797
354.825
354.858
354.897
354.942
354.992
355.048
355.111
355.182
355.259
355.344
355.438
355.54
355.651
355.772
355.903
356.045
356.198
356.363
356.541
356.731
356.935
357.153
357.385
357.633
357.897
358.176
358.473
358.787
359.119
359.469
359.837
360.224
360.63
361.054
361.498
361.96
362.441
362.94
363.457
363.991
364.54
365.105
365.683
366.273
366.874
367.483
368.099
368.719
369.342
369.964
365.839
365.749
365.582
365.344
365.052
364.732
364.406
364.089
363.784
363.487
363.192
362.893
362.591
362.287
361.983
361.683
361.389
361.101
360.82
360.548
360.285
360.034
359.794
359.566
359.353
359.153
358.967
358.794
358.635
358.488
358.353
358.228
358.112
358.004
357.903
357.808
357.718
357.632
357.55
357.47
357.393
357.318
357.244
357.172
357.102
357.033
356.964
356.897
356.83
356.765
356.702
356.639
356.577
356.516
356.456
356.398
356.341
356.285
356.23
356.175
356.123
356.071
356.021
355.971
355.922
355.875
355.829
355.783
355.739
355.695
355.652
355.61
355.568
355.527
355.487
355.447
355.407
355.368
355.33
355.291
355.254
355.217
355.18
355.144
355.108
355.073
355.04
355.006
354.974
354.943
354.914
354.885
354.858
354.832
354.808
354.785
354.765
354.746
354.73
354.716
354.704
354.696
354.69
354.688
354.688
354.693
354.701
354.712
354.729
354.749
354.774
354.804
354.838
354.879
354.925
354.976
355.034
355.099
355.171
355.25
355.337
355.433
355.537
355.651
355.774
355.907
356.052
356.207
356.375
356.554
356.747
356.954
357.174
357.409
357.66
357.926
358.209
358.508
358.825
359.159
359.511
359.882
360.272
360.68
361.107
361.553
362.018
362.502
363.003
363.522
364.059
364.611
365.178
365.759
366.353
366.957
367.571
368.192
368.818
369.448
365.39
365.322
365.193
365.008
364.775
364.508
364.226
363.94
363.658
363.379
363.102
362.823
362.541
362.256
361.972
361.689
361.41
361.136
360.869
360.609
360.358
360.116
359.884
359.663
359.454
359.257
359.073
358.9
358.739
358.59
358.451
358.321
358.2
358.087
357.98
357.88
357.785
357.694
357.607
357.523
357.441
357.362
357.285
357.211
357.137
357.066
356.995
356.926
356.857
356.791
356.726
356.662
356.599
356.536
356.475
356.416
356.358
356.301
356.245
356.19
356.136
356.084
356.032
355.981
355.932
355.883
355.836
355.79
355.744
355.699
355.655
355.612
355.569
355.527
355.485
355.444
355.404
355.364
355.324
355.285
355.247
355.209
355.171
355.134
355.098
355.062
355.028
354.994
354.961
354.929
354.898
354.868
354.84
354.813
354.788
354.764
354.742
354.722
354.705
354.689
354.676
354.665
354.657
354.653
354.651
354.652
354.658
354.666
354.679
354.696
354.717
354.743
354.773
354.809
354.85
354.896
354.949
355.008
355.073
355.146
355.226
355.314
355.41
355.516
355.63
355.754
355.889
356.034
356.19
356.358
356.539
356.733
356.94
357.161
357.397
357.648
357.915
358.198
358.498
358.815
359.149
359.502
359.873
360.263
360.671
361.098
361.545
362.01
362.493
362.995
363.515
364.052
364.605
365.173
365.756
366.352
366.96
367.578
368.205
368.839
365.016
364.962
364.859
364.709
364.518
364.294
364.049
363.793
363.534
363.275
363.016
362.754
362.49
362.223
361.955
361.688
361.423
361.163
360.908
360.659
360.418
360.185
359.96
359.746
359.541
359.348
359.165
358.993
358.831
358.68
358.538
358.405
358.28
358.162
358.051
357.946
357.846
357.751
357.66
357.572
357.487
357.404
357.324
357.247
357.171
357.097
357.024
356.953
356.883
356.815
356.748
356.683
356.619
356.555
356.493
356.433
356.374
356.316
356.259
356.203
356.148
356.095
356.042
355.991
355.94
355.891
355.842
355.795
355.748
355.702
355.657
355.613
355.569
355.526
355.483
355.441
355.4
355.359
355.318
355.278
355.239
355.2
355.162
355.124
355.087
355.05
355.015
354.98
354.946
354.913
354.881
354.85
354.821
354.793
354.766
354.741
354.718
354.696
354.677
354.659
354.644
354.632
354.622
354.614
354.61
354.609
354.611
354.616
354.625
354.638
354.655
354.676
354.702
354.733
354.768
354.809
354.856
354.908
354.967
355.033
355.106
355.186
355.273
355.37
355.475
355.589
355.712
355.846
355.991
356.147
356.314
356.494
356.687
356.893
357.114
357.348
357.598
357.864
358.146
358.444
358.759
359.092
359.444
359.813
360.201
360.608
361.034
361.479
361.943
362.426
362.927
363.447
363.984
364.538
365.108
365.694
366.294
366.907
367.532
368.168
364.7
364.656
364.571
364.446
364.286
364.095
363.881
363.652
363.416
363.176
362.933
362.687
362.439
362.188
361.935
361.682
361.431
361.183
360.939
360.7
360.468
360.243
360.026
359.817
359.617
359.426
359.245
359.074
358.912
358.759
358.615
358.479
358.351
358.23
358.115
358.006
357.903
357.804
357.709
357.617
357.529
357.443
357.361
357.28
357.202
357.126
357.052
356.979
356.907
356.837
356.769
356.703
356.638
356.573
356.51
356.448
356.389
356.33
356.271
356.214
356.159
356.105
356.051
355.999
355.947
355.897
355.848
355.799
355.751
355.705
355.658
355.613
355.568
355.524
355.481
355.438
355.395
355.353
355.312
355.271
355.231
355.191
355.152
355.113
355.075
355.038
355.001
354.965
354.93
354.896
354.863
354.831
354.801
354.771
354.743
354.717
354.692
354.668
354.647
354.628
354.61
354.596
354.583
354.573
354.566
354.561
354.56
354.562
354.567
354.576
354.588
354.605
354.626
354.651
354.681
354.716
354.757
354.802
354.854
354.912
354.977
355.048
355.127
355.214
355.309
355.412
355.525
355.647
355.779
355.922
356.075
356.241
356.418
356.609
356.812
357.03
357.262
357.509
357.771
358.05
358.345
358.657
358.987
359.336
359.702
360.087
360.492
360.915
361.358
361.821
362.303
362.804
363.324
363.863
364.419
364.993
365.584
366.191
366.813
367.449
364.431
364.394
364.322
364.216
364.078
363.912
363.724
363.519
363.304
363.081
362.854
362.623
362.389
362.153
361.914
361.674
361.435
361.197
360.964
360.734
360.51
360.292
360.081
359.877
359.682
359.494
359.315
359.144
358.983
358.829
358.684
358.546
358.415
358.291
358.173
358.061
357.954
357.852
357.754
357.659
357.568
357.48
357.394
357.312
357.232
357.153
357.077
357.002
356.929
356.858
356.788
356.721
356.655
356.589
356.524
356.462
356.402
356.342
356.283
356.225
356.168
356.113
356.059
356.006
355.953
355.902
355.852
355.803
355.754
355.706
355.659
355.613
355.567
355.522
355.478
355.434
355.39
355.348
355.305
355.263
355.222
355.181
355.141
355.102
355.063
355.024
354.987
354.95
354.914
354.879
354.844
354.811
354.779
354.748
354.719
354.69
354.664
354.639
354.615
354.594
354.574
354.557
354.542
354.529
354.519
354.511
354.506
354.504
354.505
354.51
354.518
354.529
354.545
354.565
354.589
354.618
354.651
354.69
354.735
354.785
354.841
354.903
354.973
355.049
355.133
355.226
355.326
355.436
355.555
355.684
355.823
355.973
356.135
356.308
356.494
356.694
356.907
357.134
357.376
357.634
357.908
358.199
358.506
358.832
359.176
359.538
359.92
360.321
360.742
361.183
361.645
362.126
362.628
363.15
363.692
364.254
364.835
365.434
366.052
366.688
364.202
364.169
364.107
364.015
363.894
363.748
363.581
363.396
363.199
362.993
362.781
362.564
362.342
362.118
361.891
361.663
361.435
361.208
360.983
360.762
360.545
360.334
360.128
359.929
359.737
359.552
359.375
359.206
359.044
358.891
358.744
358.604
358.472
358.345
358.225
358.11
358
357.895
357.794
357.697
357.603
357.513
357.425
357.34
357.258
357.178
357.1
357.024
356.949
356.876
356.806
356.738
356.67
356.603
356.538
356.474
356.413
356.353
356.293
356.234
356.176
356.121
356.066
356.012
355.958
355.906
355.855
355.805
355.756
355.707
355.659
355.612
355.565
355.519
355.474
355.429
355.385
355.341
355.298
355.255
355.213
355.171
355.13
355.09
355.05
355.01
354.972
354.934
354.897
354.86
354.825
354.79
354.757
354.724
354.693
354.663
354.635
354.608
354.582
354.558
354.536
354.516
354.498
354.482
354.469
354.458
354.449
354.443
354.44
354.44
354.443
354.45
354.46
354.474
354.492
354.514
354.541
354.572
354.609
354.65
354.698
354.751
354.81
354.876
354.949
355.03
355.118
355.214
355.32
355.434
355.558
355.692
355.837
355.993
356.161
356.341
356.534
356.741
356.962
357.198
357.449
357.717
358.001
358.303
358.623
358.962
359.319
359.697
360.095
360.513
360.953
361.414
361.896
362.401
362.927
363.475
364.045
364.637
365.25
365.884
364.006
363.977
363.922
363.84
363.734
363.603
363.452
363.285
363.103
362.912
362.713
362.508
362.298
362.085
361.869
361.651
361.432
361.214
360.998
360.784
360.574
360.369
360.168
359.973
359.785
359.602
359.427
359.259
359.098
358.944
358.797
358.656
358.521
358.393
358.271
358.153
358.041
357.934
357.831
357.731
357.635
357.542
357.453
357.366
357.282
357.201
357.121
357.043
356.967
356.893
356.822
356.752
356.684
356.616
356.55
356.485
356.423
356.362
356.301
356.241
356.183
356.127
356.071
356.016
355.962
355.909
355.858
355.807
355.756
355.707
355.658
355.61
355.563
355.516
355.47
355.424
355.379
355.334
355.29
355.246
355.203
355.161
355.119
355.077
355.036
354.996
354.956
354.917
354.879
354.841
354.804
354.768
354.733
354.699
354.666
354.634
354.604
354.575
354.547
354.521
354.497
354.474
354.453
354.434
354.417
354.402
354.39
354.379
354.372
354.367
354.366
354.367
354.371
354.379
354.391
354.406
354.425
354.449
354.477
354.51
354.548
354.592
354.641
354.696
354.757
354.825
354.901
354.983
355.074
355.173
355.281
355.398
355.526
355.663
355.812
355.972
356.144
356.33
356.528
356.741
356.969
357.212
357.472
357.749
358.044
358.357
358.689
359.042
359.415
359.809
360.226
360.664
361.126
361.612
362.121
362.655
363.212
363.795
364.402
365.033
363.84
363.814
363.764
363.691
363.594
363.476
363.339
363.185
363.017
362.839
362.651
362.457
362.258
362.055
361.848
361.639
361.429
361.218
361.009
360.802
360.598
360.397
360.201
360.01
359.825
359.645
359.471
359.304
359.144
358.99
358.842
358.7
358.565
358.435
358.311
358.192
358.078
357.968
357.863
357.762
357.664
357.569
357.477
357.389
357.304
357.221
357.14
357.061
356.983
356.908
356.836
356.765
356.696
356.627
356.56
356.495
356.432
356.37
356.308
356.248
356.189
356.132
356.076
356.02
355.965
355.912
355.859
355.807
355.756
355.706
355.656
355.608
355.559
355.512
355.465
355.418
355.372
355.327
355.282
355.237
355.193
355.15
355.107
355.064
355.022
354.981
354.94
354.899
354.86
354.821
354.783
354.745
354.709
354.673
354.638
354.605
354.572
354.541
354.511
354.482
354.455
354.429
354.405
354.383
354.363
354.344
354.328
354.313
354.301
354.292
354.285
354.28
354.279
354.28
354.285
354.294
354.305
354.321
354.341
354.365
354.393
354.426
354.465
354.508
354.558
354.613
354.675
354.743
354.819
354.902
354.993
355.093
355.202
355.32
355.449
355.588
355.739
355.901
356.076
356.265
356.468
356.686
356.92
357.17
357.438
357.724
358.029
358.355
358.702
359.07
359.462
359.877
360.317
360.781
361.272
361.789
362.333
362.905
363.504
364.131
363.699
363.676
363.631
363.564
363.476
363.367
363.241
363.098
362.941
362.774
362.597
362.412
362.222
362.027
361.828
361.627
361.424
361.22
361.017
360.816
360.617
360.421
360.229
360.041
359.858
359.681
359.509
359.343
359.183
359.029
358.881
358.738
358.602
358.471
358.345
358.225
358.109
357.998
357.891
357.788
357.688
357.592
357.499
357.409
357.322
357.238
357.156
357.076
356.997
356.921
356.848
356.776
356.706
356.637
356.569
356.503
356.439
356.377
356.314
356.253
356.194
356.136
356.079
356.023
355.967
355.913
355.86
355.807
355.756
355.704
355.654
355.605
355.556
355.507
355.459
355.412
355.365
355.319
355.273
355.228
355.183
355.138
355.094
355.051
355.008
354.965
354.923
354.881
354.84
354.8
354.76
354.721
354.683
354.646
354.609
354.574
354.539
354.506
354.473
354.442
354.412
354.383
354.356
354.33
354.306
354.284
354.263
354.245
354.228
354.213
354.201
354.191
354.183
354.178
354.176
354.177
354.181
354.189
354.2
354.214
354.233
354.255
354.283
354.314
354.351
354.393
354.441
354.495
354.555
354.621
354.695
354.777
354.867
354.965
355.072
355.19
355.317
355.456
355.607
355.77
355.947
356.138
356.344
356.566
356.805
357.063
357.339
357.636
357.954
358.295
358.66
359.049
359.464
359.906
360.376
360.875
361.403
361.962
362.552
363.173
363.583
363.561
363.52
363.458
363.376
363.275
363.157
363.023
362.876
362.717
362.549
362.373
362.19
362.002
361.81
361.615
361.418
361.221
361.023
360.827
360.632
360.44
360.251
360.066
359.886
359.71
359.54
359.374
359.215
359.061
358.913
358.77
358.633
358.501
358.374
358.252
358.136
358.023
357.915
357.81
357.709
357.612
357.517
357.426
357.338
357.253
357.17
357.088
357.009
356.932
356.858
356.786
356.715
356.645
356.576
356.51
356.445
356.382
356.319
356.258
356.197
356.139
356.081
356.024
355.968
355.913
355.86
355.806
355.754
355.702
355.651
355.601
355.551
355.502
355.453
355.405
355.358
355.311
355.264
355.218
355.172
355.126
355.081
355.037
354.993
354.949
354.906
354.863
354.821
354.779
354.738
354.697
354.657
354.618
354.58
354.542
354.505
354.469
354.434
354.401
354.368
354.336
354.306
354.276
354.249
354.222
354.197
354.174
354.152
354.133
354.115
354.099
354.085
354.074
354.064
354.058
354.054
354.053
354.055
354.059
354.068
354.08
354.095
354.115
354.139
354.167
354.2
354.239
354.283
354.332
354.388
354.451
354.521
354.598
354.684
354.778
354.882
354.996
355.12
355.257
355.406
355.568
355.745
355.937
356.146
356.373
356.618
356.885
357.172
357.483
357.818
358.179
358.567
358.984
359.431
359.909
360.419
360.962
361.54
362.154
363.489
363.468
363.429
363.371
363.294
363.2
363.088
362.962
362.822
362.67
362.509
362.339
362.163
361.981
361.795
361.605
361.413
361.221
361.027
360.835
360.644
360.455
360.269
360.086
359.908
359.734
359.564
359.4
359.241
359.088
358.939
358.796
358.659
358.526
358.398
358.275
358.157
358.044
357.934
357.829
357.727
357.628
357.532
357.44
357.351
357.265
357.181
357.099
357.019
356.941
356.866
356.793
356.722
356.651
356.582
356.515
356.45
356.386
356.323
356.26
356.2
356.141
356.083
356.025
355.968
355.913
355.858
355.805
355.752
355.699
355.648
355.597
355.546
355.496
355.447
355.398
355.35
355.302
355.254
355.207
355.16
355.114
355.068
355.022
354.977
354.932
354.888
354.844
354.8
354.757
354.714
354.672
354.63
354.589
354.549
354.509
354.47
354.432
354.395
354.358
354.322
354.287
354.254
354.221
354.189
354.159
354.13
354.102
354.075
354.05
354.027
354.005
353.985
353.966
353.95
353.936
353.923
353.913
353.906
353.901
353.899
353.9
353.903
353.91
353.921
353.935
353.954
353.976
354.003
354.035
354.073
354.116
354.165
354.22
354.283
354.354
354.433
354.52
354.618
354.726
354.846
354.978
355.124
355.284
355.461
355.654
355.867
356.099
356.354
356.632
356.935
357.264
357.623
358.011
358.431
358.885
359.374
359.9
360.463
361.066
363.415
363.395
363.358
363.303
363.23
363.14
363.033
362.912
362.778
362.632
362.476
362.312
362.141
361.963
361.782
361.597
361.409
361.22
361.03
360.841
360.653
360.466
360.282
360.102
359.925
359.752
359.584
359.42
359.262
359.109
358.96
358.817
358.679
358.546
358.417
358.294
358.175
358.06
357.95
357.843
357.74
357.641
357.544
357.451
357.362
357.275
357.19
357.107
357.026
356.948
356.872
356.799
356.727
356.655
356.586
356.518
356.453
356.388
356.325
356.262
356.201
356.141
356.083
356.025
355.968
355.912
355.857
355.802
355.749
355.696
355.643
355.592
355.541
355.49
355.44
355.39
355.341
355.293
355.244
355.196
355.149
355.101
355.054
355.008
354.961
354.915
354.87
354.824
354.779
354.735
354.69
354.647
354.603
354.56
354.518
354.476
354.435
354.394
354.354
354.315
354.276
354.238
354.201
354.164
354.129
354.094
354.061
354.028
353.996
353.966
353.937
353.909
353.882
353.857
353.833
353.811
353.79
353.771
353.755
353.74
353.727
353.716
353.708
353.702
353.699
353.699
353.702
353.708
353.718
353.732
353.75
353.773
353.8
353.833
353.873
353.918
353.971
354.031
354.1
354.179
354.268
354.368
354.481
354.607
354.749
354.907
355.084
355.28
355.498
355.74
356.008
356.303
356.628
356.984
357.375
357.801
358.266
358.77
359.316
359.904
363.36
363.341
363.306
363.253
363.182
363.095
362.993
362.875
362.745
362.604
362.452
362.291
362.124
361.95
361.772
361.59
361.405
361.219
361.032
360.845
360.659
360.474
360.292
360.113
359.937
359.766
359.598
359.435
359.277
359.124
358.975
358.832
358.694
358.56
358.431
358.307
358.188
358.072
357.961
357.854
357.75
357.65
357.553
357.46
357.369
357.281
357.196
357.113
357.032
356.953
356.877
356.803
356.73
356.658
356.588
356.52
356.454
356.39
356.325
356.262
356.201
356.141
356.082
356.023
355.966
355.909
355.854
355.799
355.745
355.691
355.638
355.586
355.535
355.483
355.433
355.382
355.332
355.283
355.234
355.185
355.136
355.088
355.04
354.992
354.945
354.898
354.851
354.804
354.758
354.712
354.666
354.621
354.575
354.531
354.486
354.442
354.399
354.355
354.313
354.271
354.229
354.188
354.147
354.107
354.067
354.029
353.99
353.953
353.916
353.881
353.845
353.811
353.778
353.746
353.714
353.684
353.655
353.627
353.601
353.576
353.552
353.53
353.509
353.49
353.473
353.458
353.445
353.435
353.427
353.423
353.421
353.423
353.428
353.438
353.453
353.472
353.498
353.53
353.569
353.616
353.672
353.739
353.816
353.907
354.011
354.131
354.269
354.426
354.605
354.807
355.036
355.292
355.58
355.9
356.257
356.652
357.088
357.566
358.09
358.661
363.324
363.306
363.271
363.219
363.151
363.066
362.965
362.851
362.723
362.584
362.435
362.278
362.112
361.941
361.765
361.585
361.403
361.218
361.033
360.847
360.663
360.48
360.299
360.12
359.946
359.774
359.607
359.445
359.287
359.134
358.985
358.842
358.703
358.569
358.44
358.316
358.196
358.08
357.969
357.861
357.757
357.656
357.559
357.465
357.374
357.286
357.2
357.116
357.035
356.956
356.879
356.805
356.732
356.66
356.589
356.521
356.455
356.389
356.325
356.262
356.2
356.139
356.08
356.021
355.963
355.906
355.85
355.795
355.74
355.686
355.633
355.58
355.528
355.476
355.425
355.374
355.323
355.273
355.223
355.173
355.124
355.075
355.026
354.977
354.929
354.88
354.832
354.784
354.736
354.689
354.641
354.594
354.547
354.501
354.454
354.408
354.362
354.316
354.271
354.226
354.181
354.137
354.092
354.049
354.005
353.962
353.92
353.877
353.836
353.794
353.753
353.713
353.673
353.634
353.595
353.556
353.519
353.482
353.445
353.41
353.375
353.341
353.308
353.276
353.244
353.214
353.186
353.158
353.133
353.109
353.087
353.067
353.05
353.036
353.025
353.017
353.015
353.017
353.025
353.039
353.061
353.092
353.132
353.184
353.248
353.327
353.423
353.538
353.673
353.832
354.017
354.23
354.476
354.756
355.074
355.433
355.835
356.283
356.78
357.329
363.306
363.288
363.254
363.203
363.135
363.051
362.952
362.838
362.712
362.575
362.427
362.271
362.107
361.937
361.762
361.583
361.401
361.218
361.033
360.848
360.665
360.482
360.302
360.124
359.949
359.779
359.612
359.449
359.292
359.138
358.99
358.847
358.708
358.574
358.444
358.32
358.2
358.084
357.972
357.864
357.76
357.659
357.561
357.467
357.375
357.287
357.201
357.117
357.035
356.956
356.879
356.805
356.731
356.659
356.589
356.52
356.454
356.388
356.323
356.26
356.198
356.137
356.077
356.018
355.96
355.902
355.846
355.79
355.735
355.681
355.627
355.574
355.521
355.469
355.417
355.365
355.314
355.263
355.212
355.162
355.111
355.061
355.011
354.962
354.912
354.862
354.813
354.764
354.715
354.666
354.617
354.568
354.519
354.47
354.422
354.373
354.325
354.277
354.229
354.181
354.133
354.085
354.038
353.99
353.943
353.895
353.848
353.801
353.754
353.707
353.66
353.614
353.567
353.521
353.474
353.428
353.381
353.335
353.289
353.243
353.197
353.151
353.105
353.059
353.014
352.969
352.924
352.879
352.835
352.792
352.749
352.707
352.666
352.627
352.59
352.555
352.523
352.494
352.469
352.449
352.435
352.428
352.429
352.439
352.461
352.496
352.546
352.614
352.702
352.813
352.949
353.115
353.314
353.548
353.821
354.138
354.501
354.914
355.379
355.9
363.306
363.288
363.254
363.202
363.135
363.051
362.952
362.838
362.712
362.575
362.427
362.27
362.107
361.936
361.761
361.583
361.401
361.217
361.033
360.848
360.664
360.482
360.301
360.124
359.949
359.778
359.611
359.449
359.291
359.138
358.99
358.846
358.707
358.573
358.444
358.319
358.199
358.083
357.971
357.863
357.759
357.658
357.56
357.466
357.374
357.286
357.2
357.116
357.034
356.955
356.878
356.803
356.729
356.657
356.586
356.518
356.451
356.385
356.32
356.257
356.194
356.133
356.073
356.014
355.955
355.898
355.841
355.785
355.729
355.675
355.62
355.567
355.513
355.46
355.408
355.356
355.304
355.252
355.201
355.15
355.099
355.048
354.997
354.946
354.895
354.845
354.794
354.743
354.693
354.642
354.592
354.541
354.491
354.44
354.389
354.339
354.288
354.237
354.187
354.136
354.085
354.034
353.983
353.931
353.88
353.828
353.777
353.725
353.673
353.62
353.567
353.514
353.461
353.407
353.353
353.299
353.244
353.188
353.132
353.075
353.018
352.96
352.902
352.842
352.782
352.722
352.66
352.598
352.535
352.472
352.408
352.344
352.279
352.215
352.15
352.087
352.024
351.963
351.904
351.848
351.796
351.749
351.708
351.674
351.65
351.638
351.638
351.655
351.691
351.749
351.832
351.945
352.09
352.271
352.494
352.762
353.08
353.45
353.878
354.366
363.324
363.306
363.271
363.219
363.15
363.065
362.965
362.85
362.723
362.584
362.435
362.277
362.112
361.941
361.765
361.585
361.402
361.218
361.032
360.847
360.662
360.479
360.298
360.12
359.945
359.773
359.606
359.444
359.286
359.132
358.984
358.841
358.702
358.568
358.438
358.314
358.194
358.078
357.966
357.859
357.754
357.653
357.556
357.462
357.37
357.282
357.196
357.112
357.03
356.951
356.874
356.799
356.726
356.653
356.583
356.514
356.447
356.381
356.316
356.252
356.19
356.129
356.068
356.009
355.95
355.892
355.835
355.779
355.723
355.668
355.613
355.559
355.505
355.452
355.399
355.346
355.294
355.242
355.189
355.137
355.086
355.034
354.982
354.93
354.878
354.827
354.775
354.723
354.671
354.619
354.567
354.514
354.462
354.41
354.357
354.304
354.251
354.198
354.144
354.09
354.037
353.982
353.928
353.873
353.817
353.761
353.705
353.648
353.591
353.533
353.475
353.415
353.355
353.294
353.233
353.17
353.106
353.041
352.976
352.908
352.84
352.77
352.698
352.625
352.551
352.475
352.397
352.317
352.235
352.151
352.066
351.979
351.89
351.799
351.707
351.614
351.52
351.426
351.331
351.238
351.146
351.056
350.971
350.891
350.817
350.753
350.701
350.663
350.641
350.641
350.665
350.717
350.802
350.924
351.089
351.3
351.565
351.886
352.268
352.717
363.359
363.341
363.305
363.252
363.182
363.095
362.992
362.875
362.745
362.603
362.451
362.291
362.123
361.949
361.771
361.589
361.404
361.218
361.031
360.844
360.658
360.473
360.291
360.112
359.936
359.764
359.596
359.433
359.275
359.122
358.973
358.83
358.691
358.557
358.428
358.304
358.184
358.069
357.958
357.85
357.746
357.645
357.548
357.454
357.364
357.275
357.189
357.106
357.024
356.945
356.868
356.793
356.72
356.648
356.577
356.508
356.442
356.376
356.311
356.247
356.184
356.123
356.063
356.003
355.944
355.886
355.829
355.772
355.716
355.661
355.606
355.551
355.497
355.443
355.39
355.337
355.283
355.231
355.178
355.125
355.072
355.02
354.967
354.914
354.862
354.809
354.756
354.702
354.649
354.596
354.542
354.488
354.434
354.379
354.324
354.269
354.214
354.158
354.102
354.046
353.988
353.931
353.873
353.814
353.755
353.695
353.634
353.573
353.51
353.447
353.382
353.317
353.25
353.182
353.113
353.042
352.97
352.896
352.82
352.742
352.662
352.58
352.496
352.409
352.32
352.228
352.134
352.036
351.935
351.831
351.724
351.614
351.5
351.383
351.262
351.139
351.013
350.884
350.752
350.62
350.486
350.352
350.22
350.09
349.965
349.845
349.735
349.636
349.553
349.487
349.445
349.43
349.447
349.501
349.599
349.746
349.948
350.211
350.54
350.94
363.414
363.395
363.357
363.302
363.229
363.139