/*--------------------------------*- C++ -*----------------------------------*\
| =========                 |                                                 |
| \\      /  F ield         | OpenFOAM: The Open Source CFD Toolbox           |
|  \\    /   O peration     | Version:  2306                                  |
|   \\  /    A nd           | Website:  www.openfoam.com                      |
|    \\/     M anipulation  |                                                 |
\*---------------------------------------------------------------------------*/
FoamFile
{
    version     2.0;
    format      ascii;
    arch        "LSB;label=32;scalar=64";
    class       surfaceScalarField;
    location    "0.05";
    object      phi;
}
// * * * * * * * * * * * * * * * * * * * * * * * * * * * * * * * * * * * * * //

dimensions      [0 3 -1 0 0 0 0];

oriented        oriented;

internalField   nonuniform List<scalar> 
34640
(
0.0049244
7.55957e-05
0.004786
0.000138405
0.00463055
0.00015545
0.0044739
0.000156645
0.00431592
0.000157988
0.0041548
0.000161116
0.00399094
0.00016386
0.00382569
0.000165252
0.00366068
0.000165006
0.00349731
0.000163373
0.00333648
0.000160827
0.00317881
0.000157676
0.00302482
0.000153984
0.00287512
0.000149708
0.00273032
0.000144793
0.0025911
0.000139221
0.00245815
0.00013295
0.00233206
0.000126088
0.00221322
0.000118843
0.00210202
0.000111195
0.0019988
0.000103229
0.00190374
9.50571e-05
0.00181694
8.68026e-05
0.00173834
7.85959e-05
0.00166777
7.05691e-05
0.00160493
6.28384e-05
0.00154943
5.55062e-05
0.00150077
4.86614e-05
0.0014584
4.23657e-05
0.00142175
3.66535e-05
0.0013902
3.15425e-05
0.00136317
2.7033e-05
0.00134007
2.3103e-05
0.00132035
1.97146e-05
0.00130353
1.6823e-05
0.00128915
1.43805e-05
0.00127681
1.23361e-05
0.00126618
1.06376e-05
0.00125695
9.23002e-06
0.00124888
8.06313e-06
0.00124178
7.09909e-06
0.00123548
6.30442e-06
0.00122983
5.64795e-06
0.00122473
5.10063e-06
0.00122009
4.63882e-06
0.00121585
4.24622e-06
0.00121194
3.90752e-06
0.00120833
3.60685e-06
0.001205
3.33405e-06
0.00120191
3.08549e-06
0.00119905
2.85976e-06
0.0011964
2.65368e-06
0.00119393
2.46402e-06
0.00119164
2.2938e-06
0.0011895
2.14325e-06
0.00118749
2.00714e-06
0.00118561
1.87943e-06
0.00118385
1.75827e-06
0.00118221
1.64374e-06
0.00118067
1.53375e-06
0.00117925
1.42421e-06
0.00117794
1.31301e-06
0.00117674
1.20217e-06
0.00117564
1.09501e-06
0.00117465
9.93043e-07
0.00117375
8.96696e-07
0.00117294
8.07624e-07
0.00117221
7.2911e-07
0.00117155
6.64933e-07
0.00117093
6.1775e-07
0.00117034
5.88001e-07
0.00116977
5.74138e-07
0.0011692
5.73086e-07
0.00116861
5.84543e-07
0.001168
6.14477e-07
0.00116734
6.6029e-07
0.00116662
7.18738e-07
0.00116583
7.87283e-07
0.00116497
8.63768e-07
0.00116402
9.46369e-07
0.00116299
1.03342e-06
0.00116186
1.12337e-06
0.00116065
1.21484e-06
0.00115934
1.30673e-06
0.00115794
1.39838e-06
0.00115645
1.4897e-06
0.00115487
1.58119e-06
0.0011532
1.67384e-06
0.00115143
1.76891e-06
0.00114956
1.86775e-06
0.00114759
1.97158e-06
0.00114551
2.08137e-06
0.00114331
2.19786e-06
0.00114099
2.32155e-06
0.00113854
2.45288e-06
0.00113595
2.59225e-06
0.0011332
2.7402e-06
0.00113031
2.89744e-06
0.00112724
3.06487e-06
0.001124
3.24364e-06
0.00112056
3.43511e-06
0.00111692
3.64076e-06
0.00111306
3.86221e-06
0.00110896
4.10109e-06
0.0011046
4.35906e-06
0.00109996
4.6377e-06
0.00109502
4.93854e-06
0.00108976
5.26301e-06
0.00108415
5.61268e-06
0.00107816
5.989e-06
0.00107177
6.39283e-06
0.00106494
6.82551e-06
0.00105765
7.28896e-06
0.00104987
7.7845e-06
0.00104155
8.31346e-06
0.00103268
8.87741e-06
0.0010232
9.47804e-06
0.00101308
1.01171e-05
0.00100229
1.07963e-05
0.000990768
1.15176e-05
0.000978485
1.22828e-05
0.000965391
1.30938e-05
0.000951439
1.39525e-05
0.000936578
1.48605e-05
0.000920759
1.58196e-05
0.000903928
1.68313e-05
0.000886031
1.78968e-05
0.000867014
1.90171e-05
0.000846821
2.01929e-05
0.000825397
2.14243e-05
0.000802686
2.27108e-05
0.000778634
2.40516e-05
0.00075319
2.54446e-05
0.000726303
2.68871e-05
0.000697927
2.83751e-05
0.000668024
2.99035e-05
0.000636558
3.14657e-05
0.000603505
3.30535e-05
0.000568848
3.46567e-05
0.000532585
3.62632e-05
0.000494726
3.7859e-05
0.000455299
3.94273e-05
0.000414349
4.09495e-05
0.000371945
4.24042e-05
0.000328177
4.3768e-05
0.000283161
4.50155e-05
0.000237042
4.61197e-05
0.000189989
4.70526e-05
0.000142203
4.77863e-05
9.39086e-05
4.82941e-05
4.53583e-05
4.85502e-05
-3.17676e-06
4.85351e-05
-5.14292e-05
4.82525e-05
-9.91229e-05
4.76937e-05
-0.000145968
4.6845e-05
-0.000191703
4.57353e-05
-0.000236101
4.4398e-05
-0.000278978
4.28771e-05
-0.000320204
4.1226e-05
3.95057e-05
-0.00035971
0.00503753
3.80695e-05
0.00507741
9.85178e-05
0.00509717
0.000135689
0.00510107
0.000152749
0.00509802
0.000161033
0.00509075
0.000168395
0.00507796
0.000176649
0.00505855
0.000184659
0.00503247
0.000191084
0.00500039
0.000195453
0.00496319
0.000198031
0.0049216
0.000199259
0.00487618
0.000199403
0.00482734
0.00019855
0.00477546
0.000196679
0.00472093
0.00019375
0.00466412
0.000189757
0.00460544
0.000184764
0.00454542
0.000178872
0.00448446
0.000172151
0.00442299
0.000164694
0.00436143
0.000156622
0.00430015
0.000148081
0.00423952
0.000139227
0.00417987
0.000130221
0.00412148
0.000121221
0.00406462
0.000112367
0.0040095
0.000103787
0.00395627
9.55884e-05
0.00390508
8.78492e-05
0.003856
8.0625e-05
0.00380908
7.39509e-05
0.00376434
6.78393e-05
0.00372178
6.22809e-05
0.00368135
5.72507e-05
0.00364301
5.27171e-05
0.00360671
4.86415e-05
0.00357235
4.49917e-05
0.00353986
4.17191e-05
0.00350918
3.87454e-05
0.00348024
3.60407e-05
0.00345296
3.35799e-05
0.00342728
3.13302e-05
0.00340312
2.92587e-05
0.00338042
2.7338e-05
0.00335912
2.55465e-05
0.00333917
2.38648e-05
0.0033205
2.22752e-05
0.00330307
2.07664e-05
0.00328682
1.9331e-05
0.00327172
1.79608e-05
0.00325772
1.665e-05
0.00324479
1.53998e-05
0.00323286
1.42172e-05
0.0032219
1.31038e-05
0.00321186
1.20525e-05
0.00320268
1.10553e-05
0.00319433
1.01109e-05
0.00318675
9.223e-06
0.00317989
8.39133e-06
0.00317371
7.6105e-06
0.00316814
6.87607e-06
0.00316316
6.18879e-06
0.0031587
5.55219e-06
0.00315472
4.9682e-06
0.00315118
4.43693e-06
0.00314803
3.95891e-06
0.00314523
3.53619e-06
0.00314272
3.17211e-06
0.00314047
2.86941e-06
0.00313843
2.62793e-06
0.00313656
2.44567e-06
0.00313481
2.32159e-06
0.00313314
2.25599e-06
0.0031315
2.24811e-06
0.00312987
2.2928e-06
0.0031282
2.38336e-06
0.00312648
2.51339e-06
0.00312467
2.67649e-06
0.00312275
2.86648e-06
0.0031207
3.07728e-06
0.00311852
3.30292e-06
0.0031162
3.53775e-06
0.00311373
3.77678e-06
0.00311111
4.01605e-06
0.00310835
4.25289e-06
0.00310544
4.4861e-06
0.0031024
4.71587e-06
0.00309923
4.9434e-06
0.00309592
5.17055e-06
0.0030925
5.3994e-06
0.00308895
5.632e-06
0.00308527
5.8703e-06
0.00308148
6.11623e-06
0.00307756
6.37189e-06
0.00307351
6.63974e-06
0.00306933
6.92268e-06
0.003065
7.22421e-06
0.00306052
7.54834e-06
0.00305586
7.89951e-06
0.00305102
8.28244e-06
0.00304596
8.70198e-06
0.00304065
9.16291e-06
0.00303509
9.66977e-06
0.00302922
1.02269e-05
0.00302302
1.08381e-05
0.00301645
1.1507e-05
0.00300948
1.22369e-05
0.00300206
1.30309e-05
0.00299415
1.38922e-05
0.00298572
1.4823e-05
0.00297672
1.58261e-05
0.00296711
1.69056e-05
0.00295683
1.80645e-05
0.00294583
1.93062e-05
0.00293408
2.06349e-05
0.0029215
2.20548e-05
0.00290805
2.35705e-05
0.00289366
2.51872e-05
0.00287826
2.69101e-05
0.0028618
2.87449e-05
0.0028442
3.06973e-05
0.00282538
3.27736e-05
0.00280526
3.49798e-05
0.00278375
3.73222e-05
0.00276078
3.98072e-05
0.00273623
4.2441e-05
0.00271002
4.52295e-05
0.00268204
4.81785e-05
0.00265217
5.12933e-05
0.0026203
5.45786e-05
0.00258631
5.80383e-05
0.00255008
6.16755e-05
0.00251148
6.54918e-05
0.00247037
6.94874e-05
0.00242661
7.3661e-05
0.00238006
7.80087e-05
0.00233059
8.25244e-05
0.00227805
8.71991e-05
0.00222229
9.20204e-05
0.00216318
9.69721e-05
0.00210057
0.000102034
0.00203434
0.000107181
0.00196436
0.000112383
0.00189053
0.000117606
0.00181274
0.000122807
0.00173092
0.00012794
0.00164502
0.000132952
0.00155502
0.000137786
0.00146093
0.000142378
0.00136282
0.000146658
0.0012608
0.000150562
0.00115504
0.00015401
0.0010458
0.000156932
0.000933397
0.00015925
0.000818244
0.000160888
0.00070086
0.000161782
0.000581867
0.00016187
0.000461993
0.0001611
0.000159433
0.000342066
0.00501445
2.36197e-05
0.00504448
6.84858e-05
0.0050742
0.000105969
0.00509863
0.000128325
0.00511787
0.000141792
0.00513512
0.000151142
0.00515209
0.000159684
0.00516835
0.000168394
0.00518294
0.000176497
0.0051952
0.000183193
0.005205
0.000188231
0.00521251
0.000191744
0.00521792
0.000193994
0.00522129
0.000195182
0.00522258
0.000195384
0.00522174
0.000194594
0.0052187
0.000192794
0.00521348
0.000189985
0.00520615
0.000186204
0.00519677
0.000181537
0.00518541
0.000176051
0.00517218
0.000169846
0.00515722
0.000163041
0.00514068
0.000155771
0.00512272
0.000148178
0.00510354
0.000140404
0.00508332
0.000132586
0.00506226
0.000124848
0.00504055
0.0001173
0.00501837
0.000110032
0.00499588
0.000103114
0.00497323
9.65951e-05
0.00495057
9.0504e-05
0.004928
8.48519e-05
0.00490561
7.96338e-05
0.0048835
7.48327e-05
0.00486172
7.04235e-05
0.00484033
6.63767e-05
0.0048194
6.2653e-05
0.00479893
5.92088e-05
0.00477896
5.60139e-05
0.0047595
5.30417e-05
0.00474056
5.02641e-05
0.00472217
4.76511e-05
0.00470433
4.51761e-05
0.00468706
4.28193e-05
0.00467036
4.0565e-05
0.00465424
3.83984e-05
0.0046387
3.63082e-05
0.00462374
3.42871e-05
0.00460937
3.2328e-05
0.0045956
3.0424e-05
0.00458242
2.85765e-05
0.00456984
2.67959e-05
0.00455786
2.50878e-05
0.00454647
2.34452e-05
0.00453566
2.18587e-05
0.00452544
2.03302e-05
0.0045158
1.88695e-05
0.00450671
1.748e-05
0.00449816
1.6156e-05
0.00449015
1.48932e-05
0.00448264
1.36952e-05
0.00447562
1.25691e-05
0.00446907
1.15192e-05
0.00446296
1.05462e-05
0.00445727
9.65088e-06
0.00445197
8.837e-06
0.00444703
8.10905e-06
0.00444243
7.46951e-06
0.00443814
6.91865e-06
0.00443413
6.4569e-06
0.00443037
6.08482e-06
0.00442682
5.80234e-06
0.00442346
5.60755e-06
0.00442026
5.49569e-06
0.00441718
5.46057e-06
0.0044142
5.49555e-06
0.00441128
5.59356e-06
0.0044084
5.74721e-06
0.00440553
5.94909e-06
0.00440264
6.19213e-06
0.00439971
6.46989e-06
0.00439671
6.77705e-06
0.00439362
7.10966e-06
0.0043904
7.46528e-06
0.00438705
7.84262e-06
0.00438352
8.24098e-06
0.00437981
8.65939e-06
0.00437588
9.09584e-06
0.00437173
9.54677e-06
0.00436736
1.00071e-05
0.00436276
1.04706e-05
0.00435794
1.0931e-05
0.00435293
1.1383e-05
0.00434775
1.18234e-05
0.00434242
1.22522e-05
0.00433697
1.26726e-05
0.00433143
1.30916e-05
0.00432581
1.35191e-05
0.00432012
1.39675e-05
0.00431437
1.44503e-05
0.00430855
1.49818e-05
0.00430265
1.55756e-05
0.00429663
1.62445e-05
0.00429047
1.69993e-05
0.00428413
1.78499e-05
0.00427756
1.88037e-05
0.00427072
1.98671e-05
0.00426357
2.10456e-05
0.00425605
2.23434e-05
0.00424811
2.37643e-05
0.00423971
2.53121e-05
0.00423078
2.69906e-05
0.00422128
2.88042e-05
0.00421116
3.07576e-05
0.00420036
3.28565e-05
0.00418882
3.51071e-05
0.00417649
3.75163e-05
0.00416331
4.00921e-05
0.00414921
4.28427e-05
0.00413413
4.57775e-05
0.004118
4.8906e-05
0.00410074
5.22387e-05
0.00408228
5.57862e-05
0.00406252
5.95595e-05
0.00404139
6.35701e-05
0.0040188
6.78293e-05
0.00399462
7.23486e-05
0.00396878
7.71394e-05
0.00394114
8.22126e-05
0.0039116
8.75789e-05
0.00388003
9.3248e-05
0.00384629
9.92286e-05
0.00381025
0.000105528
0.00377176
0.000112153
0.00373067
0.000119106
0.0036868
0.000126389
0.00364
0.000134
0.00359008
0.000141935
0.00353687
0.000150183
0.00348018
0.000158731
0.0034198
0.000167559
0.00335554
0.000176643
0.0032872
0.000185949
0.00321456
0.00019544
0.00313744
0.000205067
0.00305561
0.000214775
0.0029689
0.000224499
0.00287711
0.000234164
0.00278009
0.000243686
0.00267768
0.000252973
0.00256977
0.000261917
0.00245629
0.000270407
0.00233723
0.000278317
0.00221261
0.00028551
0.00208254
0.000291844
0.00194724
0.000297171
0.00180701
0.000301334
0.00030418
0.00166226
0.00500634
1.7279e-05
0.00502386
5.09695e-05
0.00504706
8.27621e-05
0.00506942
0.000105967
0.00508913
0.000122084
0.00510693
0.000133343
0.00512454
0.000142077
0.00514278
0.000150147
0.00516126
0.00015802
0.00517947
0.000164981
0.00519709
0.000170613
0.005214
0.000174835
0.00523023
0.000177765
0.0052458
0.000179606
0.00526068
0.00018051
0.00527475
0.000180519
0.00528791
0.000179638
0.00530002
0.00017787
0.00531099
0.000175235
0.00532074
0.00017179
0.00532919
0.000167599
0.0053363
0.000162742
0.00534202
0.000157314
0.00534637
0.000151424
0.00534936
0.000145186
0.00535105
0.000138718
0.0053515
0.000132136
0.0053508
0.000125545
0.00534906
0.000119044
0.00534638
0.000112714
0.00534287
0.000106622
0.00533865
0.000100818
0.00533381
9.53362e-05
0.00532847
9.01935e-05
0.00532271
8.53965e-05
0.0053166
8.09372e-05
0.00531023
7.67979e-05
0.00530365
7.29554e-05
0.00529692
6.93845e-05
0.00529007
6.60586e-05
0.00528313
6.2951e-05
0.00527614
6.00372e-05
0.00526911
5.72932e-05
0.00526207
5.4693e-05
0.00525503
5.22119e-05
0.00524802
4.98323e-05
0.00524104
4.75417e-05
0.00523411
4.53278e-05
0.00522724
4.31804e-05
0.00522043
4.10929e-05
0.0052137
3.90582e-05
0.00520706
3.70679e-05
0.00520051
3.51217e-05
0.00519408
3.32305e-05
0.00518777
3.14026e-05
0.00518158
2.96316e-05
0.00517553
2.7907e-05
0.00516963
2.6231e-05
0.00516388
2.46163e-05
0.00515829
2.30689e-05
0.00515287
2.15841e-05
0.0051476
2.01573e-05
0.0051425
1.87937e-05
0.00513757
1.75024e-05
0.0051328
1.62887e-05
0.00512819
1.51531e-05
0.00512375
1.40969e-05
0.00511946
1.31245e-05
0.00511533
1.22413e-05
0.00511135
1.14509e-05
0.00510751
1.07553e-05
0.00510381
1.01557e-05
0.00510024
9.65284e-06
0.0050968
9.24692e-06
0.00509347
8.93634e-06
0.00509025
8.71758e-06
0.00508712
8.58613e-06
0.00508408
8.53744e-06
0.00508111
8.56662e-06
0.00507819
8.66819e-06
0.0050753
8.83592e-06
0.00507243
9.06301e-06
0.00506956
9.34247e-06
0.00506666
9.66818e-06
0.00506374
1.0036e-05
0.00506076
1.04447e-05
0.00505771
1.08965e-05
0.00505455
1.1396e-05
0.00505126
1.1949e-05
0.0050478
1.25598e-05
0.00504411
1.32291e-05
0.00504017
1.39524e-05
0.00503592
1.4719e-05
0.00503134
1.55127e-05
0.00502641
1.63139e-05
0.00502113
1.71021e-05
0.00501552
1.78591e-05
0.00500962
1.85719e-05
0.00500348
1.92346e-05
0.00499715
1.98495e-05
0.00499069
2.04269e-05
0.00498416
2.09844e-05
0.00497759
2.15444e-05
0.00497104
2.21327e-05
0.00496451
2.27761e-05
0.004958
2.35004e-05
0.00495152
2.43294e-05
0.00494504
2.52837e-05
0.00493853
2.638e-05
0.00493194
2.76322e-05
0.00492524
2.90515e-05
0.00491836
3.06458e-05
0.00491125
3.24207e-05
0.00490386
3.43815e-05
0.00489613
3.65329e-05
0.004888
3.88797e-05
0.00487943
4.14269e-05
0.00487036
4.41805e-05
0.00486073
4.71474e-05
0.00485049
5.03357e-05
0.00483957
5.37546e-05
0.00482794
5.74144e-05
0.00481552
6.13266e-05
0.00480225
6.55038e-05
0.00478808
6.99592e-05
0.00477293
7.47073e-05
0.00475674
7.97627e-05
0.00473943
8.5141e-05
0.00472092
9.0858e-05
0.00470113
9.69297e-05
0.00467997
0.000103372
0.00465734
0.000110202
0.00463316
0.000117434
0.0046073
0.000125084
0.00457966
0.000133166
0.00455013
0.000141692
0.00451856
0.000150673
0.00448483
0.00016012
0.00444879
0.000170037
0.0044103
0.000180429
0.00436918
0.000191295
0.00432528
0.00020263
0.00427842
0.000214423
0.0042284
0.00022666
0.00417503
0.000239317
0.00411811
0.000252365
0.00405741
0.000265764
0.00399272
0.000279466
0.00392381
0.000293414
0.00385043
0.000307537
0.00377237
0.000321754
0.00368937
0.000335971
0.00360121
0.000350076
0.00350767
0.000363947
0.00340854
0.000377441
0.00330365
0.0003904
0.00319285
0.000402648
0.00307603
0.000413994
0.00295313
0.000424229
0.000433136
0.00282417
0.00500365
1.36267e-05
0.00501435
4.02687e-05
0.0050312
6.59146e-05
0.00504937
8.77966e-05
0.00506706
0.000104391
0.00508369
0.00011672
0.00509969
0.000126071
0.00511592
0.000133922
0.0051327
0.000141237
0.00514983
0.000147857
0.00516696
0.000153479
0.00518391
0.000157888
0.00520059
0.000161082
0.005217
0.000163198
0.00523313
0.000164375
0.00524896
0.000164698
0.00526438
0.000164211
0.00527932
0.000162936
0.00529365
0.000160896
0.00530731
0.000158135
0.0053202
0.000154711
0.00533225
0.000150693
0.0053434
0.000146161
0.00535362
0.000141207
0.00536288
0.000135926
0.00537118
0.000130415
0.00537854
0.00012477
0.00538501
0.000119083
0.00539062
0.000113435
0.00539543
0.000107898
0.00539952
0.000102531
0.00540296
9.73819e-05
0.00540581
9.24828e-05
0.00540815
8.78539e-05
0.00541004
8.35055e-05
0.00541154
7.94358e-05
0.00541271
7.56334e-05
0.00541358
7.20822e-05
0.0054142
6.87654e-05
0.0054146
6.56638e-05
0.00541479
6.27559e-05
0.00541481
6.00213e-05
0.00541466
5.744e-05
0.00541436
5.49893e-05
0.00541393
5.26476e-05
0.00541336
5.03988e-05
0.00541267
4.82319e-05
0.00541186
4.61364e-05
0.00541094
4.41042e-05
0.0054099
4.21294e-05
0.00540876
4.02044e-05
0.00540751
3.83194e-05
0.00540615
3.64725e-05
0.00540471
3.46738e-05
0.00540318
3.2932e-05
0.00540157
3.12414e-05
0.00539989
2.95913e-05
0.00539814
2.79827e-05
0.00539632
2.64282e-05
0.00539446
2.49357e-05
0.00539254
2.35011e-05
0.00539058
2.21199e-05
0.00538858
2.07964e-05
0.00538654
1.954e-05
0.00538447
1.83562e-05
0.00538238
1.72457e-05
0.00538026
1.62098e-05
0.00537814
1.52528e-05
0.005376
1.43804e-05
0.00537385
1.35966e-05
0.0053717
1.29032e-05
0.00536956
1.23018e-05
0.00536742
1.17938e-05
0.00536528
1.13795e-05
0.00536316
1.10579e-05
0.00536105
1.08258e-05
0.00535896
1.06798e-05
0.00535688
1.0617e-05
0.00535481
1.06348e-05
0.00535275
1.07306e-05
0.00535069
1.09008e-05
0.00534861
1.11404e-05
0.00534651
1.14428e-05
0.00534437
1.18012e-05
0.0053422
1.221e-05
0.00533998
1.26669e-05
0.0053377
1.31751e-05
0.00533535
1.37432e-05
0.00533292
1.43842e-05
0.00533036
1.51125e-05
0.00532765
1.594e-05
0.00532473
1.68721e-05
0.00532155
1.79045e-05
0.00531804
1.90214e-05
0.00531416
2.01968e-05
0.00530986
2.13967e-05
0.00530514
2.25839e-05
0.00529999
2.37229e-05
0.00529444
2.4785e-05
0.00528853
2.57522e-05
0.00528234
2.66192e-05
0.00527593
2.7394e-05
0.00526938
2.8097e-05
0.00526275
2.8758e-05
0.00525612
2.94137e-05
0.00524951
3.01036e-05
0.00524298
3.08677e-05
0.00523652
3.17431e-05
0.00523013
3.27628e-05
0.00522381
3.39549e-05
0.00521752
3.53424e-05
0.00521122
3.69426e-05
0.00520488
3.87683e-05
0.00519843
4.08291e-05
0.00519183
4.31325e-05
0.00518502
4.56842e-05
0.00517796
4.84895e-05
0.00517059
5.15539e-05
0.00516285
5.48834e-05
0.0051547
5.84854e-05
0.00514609
6.23683e-05
0.00513696
6.65423e-05
0.00512727
7.10189e-05
0.00511696
7.58111e-05
0.00510599
8.09332e-05
0.00509429
8.64008e-05
0.00508182
9.22307e-05
0.00506853
9.84405e-05
0.00505433
0.000105049
0.00503919
0.000112074
0.00502302
0.000119537
0.00500577
0.000127457
0.00498735
0.000135852
0.00496769
0.000144744
0.00494671
0.00015415
0.00492431
0.000164088
0.00490041
0.000174576
0.0048749
0.000185627
0.00484768
0.000197256
0.00481864
0.00020947
0.00478766
0.000222279
0.00475461
0.000235683
0.00471935
0.000249681
0.00468174
0.000264267
0.00464163
0.000279425
0.00459886
0.000295136
0.00455326
0.000311372
0.00450463
0.000328093
0.00445279
0.000345252
0.00439754
0.000362789
0.00433866
0.000380632
0.00427594
0.000398694
0.00420914
0.000416874
0.00413804
0.000435052
0.00406238
0.000453091
0.00398195
0.000470833
0.0038965
0.000488096
0.00380582
0.000504683
0.00370968
0.000520368
0.000534911
0.0036079
0.00500249
1.11358e-05
0.00500983
3.29335e-05
0.00502172
5.40238e-05
0.00503623
7.32818e-05
0.00505145
8.91705e-05
0.00506653
0.000101644
0.0050812
0.000111395
0.00509582
0.000119302
0.00511086
0.000126198
0.00512633
0.000132387
0.00514205
0.000137758
0.00515781
0.000142127
0.00517346
0.000145432
0.00518894
0.000147718
0.00520424
0.000149081
0.00521932
0.000149616
0.00523414
0.00014939
0.00524863
0.000148445
0.00526271
0.000146815
0.00527631
0.00014454
0.00528935
0.000141671
0.00530177
0.00013827
0.00531352
0.000134405
0.00532458
0.000130155
0.0053349
0.000125601
0.00534449
0.000120826
0.00535335
0.000115911
0.0053615
0.000110933
0.00536897
0.000105965
0.0053758
0.000101066
0.00538204
9.62917e-05
0.00538774
9.16827e-05
0.00539295
8.72709e-05
0.00539773
8.30772e-05
0.00540212
7.91136e-05
0.00540617
7.5383e-05
0.00540993
7.18793e-05
0.00541342
6.85923e-05
0.00541667
6.55102e-05
0.00541972
6.26183e-05
0.00542257
5.98997e-05
0.00542526
5.73387e-05
0.00542778
5.49189e-05
0.00543015
5.2621e-05
0.00543237
5.0426e-05
0.00543445
4.83202e-05
0.00543639
4.62932e-05
0.00543819
4.43357e-05
0.00543985
4.24414e-05
0.00544137
4.06059e-05
0.00544276
3.8821e-05
0.005444
3.70764e-05
0.0054451
3.5369e-05
0.00544607
3.37073e-05
0.0054469
3.20994e-05
0.0054476
3.05406e-05
0.00544817
2.90207e-05
0.00544862
2.75397e-05
0.00544894
2.61086e-05
0.00544914
2.47353e-05
0.00544922
2.3417e-05
0.00544919
2.21491e-05
0.00544905
2.09347e-05
0.00544881
1.97824e-05
0.00544847
1.86979e-05
0.00544803
1.76825e-05
0.00544751
1.6737e-05
0.00544689
1.58652e-05
0.0054462
1.5072e-05
0.00544544
1.43605e-05
0.00544461
1.37329e-05
0.00544372
1.31911e-05
0.00544278
1.27367e-05
0.00544178
1.23705e-05
0.00544075
1.20912e-05
0.00543968
1.18961e-05
0.00543858
1.17824e-05
0.00543745
1.17484e-05
0.00543629
1.17934e-05
0.0054351
1.1917e-05
0.00543388
1.21184e-05
0.00543263
1.23943e-05
0.00543133
1.27394e-05
0.00542999
1.31463e-05
0.00542859
1.36077e-05
0.00542714
1.41199e-05
0.00542563
1.4685e-05
0.00542406
1.53131e-05
0.00542242
1.60217e-05
0.0054207
1.68335e-05
0.00541887
1.7771e-05
0.00541689
1.88515e-05
0.00541471
2.0081e-05
0.00541228
2.14508e-05
0.00540954
2.29361e-05
0.00540644
2.44975e-05
0.00540294
2.6086e-05
0.00539902
2.76488e-05
0.00539466
2.91364e-05
0.00538991
3.05092e-05
0.00538478
3.17423e-05
0.00537935
3.2828e-05
0.00537367
3.37766e-05
0.00536781
3.46139e-05
0.00536185
3.53788e-05
0.00535583
3.61182e-05
0.00534982
3.68833e-05
0.00534384
3.7725e-05
0.00533791
3.86913e-05
0.00533204
3.98248e-05
0.00532622
4.11612e-05
0.00532043
4.27295e-05
0.00531465
4.45521e-05
0.00530883
4.66454e-05
0.00530294
4.90218e-05
0.00529694
5.16901e-05
0.00529077
5.46573e-05
0.00528439
5.79295e-05
0.00527776
6.15128e-05
0.00527084
6.54139e-05
0.00526356
6.96407e-05
0.0052559
7.42027e-05
0.00524781
7.91109e-05
0.00523924
8.43782e-05
0.00523016
9.00189e-05
0.00522051
9.60492e-05
0.00521025
0.000102486
0.00519935
0.00010935
0.00518774
0.000116658
0.00517538
0.000124434
0.00516222
0.000132697
0.0051482
0.00014147
0.00513328
0.000150775
0.00511739
0.000160635
0.00510047
0.000171071
0.00508245
0.000182103
0.00506328
0.000193754
0.00504286
0.00020604
0.00502114
0.000218979
0.00499803
0.000232585
0.00497343
0.000246869
0.00494728
0.00026184
0.00491946
0.0002775
0.00488988
0.000293849
0.00485842
0.000310878
0.00482499
0.000328575
0.00478944
0.000346917
0.00475166
0.000365874
0.0047115
0.000385407
0.00466883
0.000405464
0.00462348
0.000425983
0.00457528
0.000446886
0.00452408
0.000468081
0.00446967
0.000489459
0.00441187
0.000510891
0.00435047
0.000532231
0.00428526
0.000553308
0.00421602
0.000573928
0.00414251
0.000593877
0.000612912
0.00406451
0.00500185
9.2862e-06
0.00500729
2.74971e-05
0.00501605
4.52602e-05
0.00502757
6.17624e-05
0.00504041
7.63283e-05
0.00505376
8.82941e-05
0.00506717
9.79886e-05
0.00508058
0.000105889
0.00509424
0.000112539
0.00510829
0.000118336
0.00512267
0.000123377
0.00513722
0.000127579
0.00515178
0.000130871
0.00516625
0.000133244
0.00518059
0.000134748
0.00519474
0.000135459
0.00520868
0.00013545
0.00522235
0.000134776
0.00523569
0.000133481
0.00524862
0.000131607
0.00526109
0.000129198
0.00527305
0.00012631
0.00528446
0.000123002
0.00529527
0.000119341
0.00530547
0.000115398
0.00531506
0.000111243
0.00532402
0.000106945
0.00533238
0.000102573
0.00534016
9.81863e-05
0.00534739
9.38396e-05
0.0053541
8.95797e-05
0.00536034
8.5445e-05
0.00536614
8.14649e-05
0.00537156
7.76603e-05
0.00537663
7.40446e-05
0.00538139
7.06235e-05
0.00538587
6.73953e-05
0.00539011
6.43543e-05
0.00539413
6.14923e-05
0.00539795
5.87978e-05
0.00540159
5.6258e-05
0.00540507
5.38608e-05
0.00540839
5.15935e-05
0.00541157
4.94399e-05
0.00541462
4.73841e-05
0.00541752
4.54145e-05
0.00542029
4.35216e-05
0.00542293
4.16967e-05
0.00542544
3.99344e-05
0.00542781
3.82315e-05
0.00543005
3.65809e-05
0.00543216
3.49722e-05
0.00543412
3.34015e-05
0.00543596
3.18753e-05
0.00543766
3.04008e-05
0.00543922
2.89747e-05
0.00544065
2.75883e-05
0.00544195
2.62402e-05
0.00544312
2.4939e-05
0.00544417
2.36921e-05
0.00544509
2.2498e-05
0.00544588
2.13528e-05
0.00544656
2.02586e-05
0.00544712
1.92227e-05
0.00544756
1.82508e-05
0.0054479
1.73445e-05
0.00544814
1.6504e-05
0.00544827
1.5732e-05
0.00544831
1.50324e-05
0.00544826
1.44084e-05
0.00544813
1.38622e-05
0.00544793
1.3396e-05
0.00544765
1.30116e-05
0.00544731
1.27095e-05
0.00544692
1.24886e-05
0.00544646
1.23466e-05
0.00544597
1.22815e-05
0.00544542
1.22922e-05
0.00544484
1.23793e-05
0.00544421
1.2544e-05
0.00544354
1.27869e-05
0.00544283
1.31066e-05
0.00544207
1.34983e-05
0.00544126
1.39549e-05
0.0054404
1.44685e-05
0.00543949
1.50342e-05
0.00543852
1.56537e-05
0.00543749
1.63374e-05
0.00543641
1.71056e-05
0.00543526
1.79857e-05
0.00543402
1.90073e-05
0.00543268
2.01962e-05
0.00543119
2.15669e-05
0.00542952
2.31179e-05
0.00542763
2.48284e-05
0.00542547
2.66589e-05
0.005423
2.85554e-05
0.00542019
3.04556e-05
0.00541703
3.22969e-05
0.00541352
3.40246e-05
0.00540966
3.55979e-05
0.00540549
3.69953e-05
0.00540106
3.82157e-05
0.00539639
3.92779e-05
0.00539155
4.02178e-05
0.00538659
4.1084e-05
0.00538154
4.19328e-05
0.00537644
4.28232e-05
0.00537132
4.38133e-05
0.00536619
4.49566e-05
0.00536105
4.62986e-05
0.0053559
4.78783e-05
0.00535072
4.97273e-05
0.0053455
5.18692e-05
0.0053402
5.43215e-05
0.00533479
5.70974e-05
0.00532924
6.02066e-05
0.00532352
6.36573e-05
0.00531757
6.74563e-05
0.00531138
7.1611e-05
0.00530489
7.61293e-05
0.00529807
8.10206e-05
0.00529088
8.62958e-05
0.00528329
9.19677e-05
0.00527526
9.80508e-05
0.00526675
0.000104561
0.00525772
0.000111518
0.00524813
0.000118939
0.00523794
0.000126846
0.00522712
0.000135261
0.00521561
0.000144206
0.00520337
0.000153705
0.00519036
0.000163782
0.00517654
0.000174462
0.00516184
0.000185766
0.00514622
0.00019772
0.00512963
0.000210345
0.00511201
0.000223663
0.0050933
0.000237691
0.00507343
0.000252449
0.00505235
0.000267949
0.00502999
0.000284202
0.00500628
0.000301215
0.00498114
0.00031899
0.00495449
0.000337522
0.00492626
0.000356802
0.00489637
0.000376813
0.00486472
0.000397527
0.00483121
0.000418911
0.00479576
0.000440917
0.00475825
0.000463489
0.00471858
0.000486556
0.00467663
0.000510032
0.00463227
0.000533817
0.00458537
0.000557792
0.00453579
0.000581817
0.00448336
0.000605736
0.00442792
0.000629366
0.00436929
0.000652506
0.000674928
0.00430727
0.00500144
7.8465e-06
0.00500568
2.32582e-05
0.00501256
3.83785e-05
0.00502175
5.25698e-05
0.00503258
6.54966e-05
0.00504427
7.66045e-05
0.00505639
8.58756e-05
0.00506872
9.35582e-05
0.00508128
9.99799e-05
0.00509416
0.000105455
0.00510737
0.000110165
0.00512082
0.000114133
0.00513437
0.000117317
0.00514792
0.000119694
0.00516139
0.000121282
0.00517471
0.000122131
0.00518786
0.000122305
0.00520077
0.000121862
0.0052134
0.000120852
0.00522569
0.000119319
0.00523758
0.000117306
0.00524903
0.000114861
0.00526
0.000112036
0.00527045
0.000108888
0.00528037
0.000105478
0.00528975
0.000101866
0.00529858
9.81134e-05
0.00530688
9.42772e-05
0.00531465
9.04105e-05
0.00532193
8.65602e-05
0.00532874
8.2768e-05
0.00533512
7.90687e-05
0.0053411
7.54892e-05
0.00534671
7.20501e-05
0.00535198
6.87655e-05
0.00535697
6.56427e-05
0.00536168
6.26831e-05
0.00536615
5.98841e-05
0.0053704
5.72405e-05
0.00537445
5.47438e-05
0.00537833
5.23844e-05
0.00538204
5.01529e-05
0.00538559
4.80394e-05
0.005389
4.60315e-05
0.00539227
4.41158e-05
0.0053954
4.22823e-05
0.0053984
4.05227e-05
0.00540127
3.88287e-05
0.005404
3.7195e-05
0.00540662
3.56196e-05
0.0054091
3.40973e-05
0.00541145
3.2619e-05
0.00541368
3.11796e-05
0.00541577
2.97832e-05
0.00541773
2.84361e-05
0.00541957
2.71368e-05
0.00542128
2.5878e-05
0.00542286
2.46574e-05
0.00542432
2.34807e-05
0.00542566
2.23548e-05
0.00542688
2.12799e-05
0.00542798
2.02532e-05
0.00542896
1.92756e-05
0.00542983
1.8353e-05
0.00543059
1.74904e-05
0.00543124
1.66893e-05
0.0054318
1.59501e-05
0.00543226
1.52746e-05
0.00543262
1.46665e-05
0.0054329
1.41289e-05
0.0054331
1.36642e-05
0.00543322
1.32743e-05
0.00543327
1.29607e-05
0.00543326
1.2724e-05
0.00543318
1.25631e-05
0.00543305
1.24763e-05
0.00543287
1.24619e-05
0.00543264
1.25198e-05
0.00543237
1.26514e-05
0.00543206
1.28588e-05
0.0054317
1.31437e-05
0.0054313
1.35054e-05
0.00543086
1.39399e-05
0.00543037
1.44404e-05
0.00542984
1.49993e-05
0.00542927
1.56118e-05
0.00542864
1.62796e-05
0.00542796
1.70139e-05
0.00542723
1.78363e-05
0.00542644
1.87765e-05
0.00542558
1.98677e-05
0.00542464
2.11398e-05
0.00542359
2.26124e-05
0.00542242
2.42883e-05
0.0054211
2.61503e-05
0.0054196
2.81608e-05
0.00541789
3.02652e-05
0.00541595
3.23982e-05
0.00541375
3.44914e-05
0.00541129
3.64824e-05
0.00540857
3.83218e-05
0.00540559
3.99787e-05
0.00540236
4.14438e-05
0.00539891
4.27293e-05
0.00539526
4.38667e-05
0.00539144
4.49028e-05
0.00538748
4.58945e-05
0.0053834
4.69036e-05
0.00537922
4.79932e-05
0.00537495
4.92227e-05
0.00537061
5.06437e-05
0.00536618
5.23021e-05
0.00536167
5.42363e-05
0.00535707
5.64752e-05
0.00535235
5.90415e-05
0.00534749
6.19524e-05
0.00534248
6.5221e-05
0.00533728
6.88578e-05
0.00533186
7.28717e-05
0.0053262
7.72711e-05
0.00532027
8.2065e-05
0.00531402
8.72635e-05
0.00530744
9.2878e-05
0.00530049
9.89218e-05
0.00529313
0.00010541
0.00528533
0.000112359
0.00527706
0.000119788
0.00526828
0.000127717
0.00525896
0.000136168
0.00524906
0.000145164
0.00523853
0.000154729
0.00522735
0.000164887
0.00521547
0.000175665
0.00520284
0.000187087
0.00518943
0.000199178
0.00517519
0.000211965
0.00516006
0.00022547
0.00514401
0.000239717
0.00512697
0.000254727
0.0051089
0.000270518
0.00508975
0.000287107
0.00506944
0.000304505
0.00504794
0.000322722
0.00502517
0.00034176
0.00500107
0.000361618
0.00497559
0.000382288
0.00494865
0.000403752
0.00492019
0.000425988
0.00489013
0.000448962
0.00485842
0.00047263
0.00482497
0.000496936
0.00478972
0.000521812
0.00475257
0.000547178
0.00471346
0.000572933
0.00467228
0.000598966
0.00462895