/*--------------------------------*- C++ -*----------------------------------*\
| =========                 |                                                 |
| \\      /  F ield         | OpenFOAM: The Open Source CFD Toolbox           |
|  \\    /   O peration     | Version:  2306                                  |
|   \\  /    A nd           | Website:  www.openfoam.com                      |
|    \\/     M anipulation  |                                                 |
\*---------------------------------------------------------------------------*/
FoamFile
{
    version     2.0;
    format      ascii;
    arch        "LSB;label=32;scalar=64";
    class       volVectorField;
    location    "0.05";
    object      U;
}
// * * * * * * * * * * * * * * * * * * * * * * * * * * * * * * * * * * * * * //

dimensions      [0 1 -1 0 0 0 0];

internalField   nonuniform List<vector> 
17600
(
(9.80708 0.0850045 0)
(9.62284 0.180492 0)
(9.412 0.217934 0)
(9.14636 0.225555 0)
(8.83452 0.225065 0)
(8.49858 0.225339 0)
(8.15649 0.226674 0)
(7.81717 0.227047 0)
(7.48333 0.225116 0)
(7.155 0.220683 0)
(6.8318 0.214281 0)
(6.5139 0.206541 0)
(6.20215 0.197895 0)
(5.8979 0.188527 0)
(5.60268 0.178444 0)
(5.31801 0.16764 0)
(5.04525 0.156108 0)
(4.78583 0.143901 0)
(4.54064 0.13105 0)
(4.3105 0.117635 0)
(4.0961 0.103844 0)
(3.89791 0.0899522 0)
(3.71623 0.0762429 0)
(3.5511 0.0630138 0)
(3.40226 0.0505572 0)
(3.26922 0.0390887 0)
(3.15128 0.0287623 0)
(3.0475 0.0197017 0)
(2.95683 0.0119545 0)
(2.87814 0.00548459 0)
(2.81024 0.000230531 0)
(2.75192 -0.0038825 0)
(2.702 -0.00697126 0)
(2.65936 -0.00918246 0)
(2.62298 -0.0106556 0)
(2.5919 -0.0115117 0)
(2.5653 -0.0118577 0)
(2.54242 -0.0117934 0)
(2.52262 -0.0114164 0)
(2.50539 -0.0108231 0)
(2.49028 -0.0100934 0)
(2.47692 -0.00929163 0)
(2.46501 -0.00846166 0)
(2.4543 -0.00763124 0)
(2.44458 -0.00681789 0)
(2.43572 -0.00602761 0)
(2.42759 -0.00526856 0)
(2.4201 -0.00455781 0)
(2.41317 -0.00390416 0)
(2.40676 -0.00330184 0)
(2.40083 -0.00273829 0)
(2.39533 -0.0022021 0)
(2.39022 -0.00169016 0)
(2.38547 -0.00120953 0)
(2.38105 -0.000767677 0)
(2.3769 -0.000371006 0)
(2.37302 -2.55325e-05 0)
(2.36939 0.000265291 0)
(2.36599 0.00049844 0)
(2.36282 0.000672119 0)
(2.35987 0.000788243 0)
(2.35714 0.000853317 0)
(2.35463 0.000877927 0)
(2.35233 0.000873025 0)
(2.35025 0.000846833 0)
(2.34837 0.000805724 0)
(2.34667 0.000755753 0)
(2.34514 0.000702539 0)
(2.34375 0.00065103 0)
(2.34247 0.000605768 0)
(2.34127 0.000570944 0)
(2.34012 0.000549766 0)
(2.33897 0.00054357 0)
(2.33782 0.000549399 0)
(2.33662 0.00056076 0)
(2.33535 0.000577493 0)
(2.33397 0.000600963 0)
(2.33247 0.000632037 0)
(2.33082 0.000671617 0)
(2.32901 0.00072067 0)
(2.32703 0.000779766 0)
(2.32487 0.000848784 0)
(2.32253 0.000927131 0)
(2.32001 0.00101409 0)
(2.31731 0.00110894 0)
(2.31442 0.00121097 0)
(2.31135 0.00131948 0)
(2.30809 0.00143376 0)
(2.30465 0.00155313 0)
(2.30102 0.00167699 0)
(2.29718 0.00180488 0)
(2.29313 0.00193648 0)
(2.28885 0.00207171 0)
(2.28433 0.00221076 0)
(2.27956 0.00235403 0)
(2.27452 0.00250221 0)
(2.26919 0.00265622 0)
(2.26356 0.00281726 0)
(2.2576 0.0029867 0)
(2.2513 0.00316608 0)
(2.24462 0.00335702 0)
(2.23755 0.00356122 0)
(2.23005 0.00378031 0)
(2.2221 0.00401592 0)
(2.21364 0.00426959 0)
(2.20465 0.00454274 0)
(2.19509 0.00483674 0)
(2.18489 0.0051528 0)
(2.17403 0.00549232 0)
(2.16243 0.00585648 0)
(2.15006 0.00624582 0)
(2.13685 0.00666149 0)
(2.12275 0.00710526 0)
(2.10769 0.00757813 0)
(2.0916 0.00808098 0)
(2.07442 0.00861497 0)
(2.05608 0.00918129 0)
(2.0365 0.0097811 0)
(2.0156 0.0104155 0)
(1.9933 0.0110857 0)
(1.96952 0.0117925 0)
(1.94416 0.0125369 0)
(1.91714 0.0133194 0)
(1.88835 0.0141404 0)
(1.85769 0.015 0)
(1.82506 0.0158979 0)
(1.79036 0.0168332 0)
(1.75347 0.0178046 0)
(1.71429 0.01881 0)
(1.6727 0.0198464 0)
(1.62859 0.02091 0)
(1.58186 0.0219957 0)
(1.53239 0.0230973 0)
(1.48009 0.0242069 0)
(1.42486 0.025315 0)
(1.3666 0.0264103 0)
(1.30526 0.0274795 0)
(1.24077 0.0285068 0)
(1.17308 0.0294742 0)
(1.10217 0.0303613 0)
(1.02806 0.031145 0)
(0.950778 0.0317998 0)
(0.870397 0.0322982 0)
(0.78703 0.0326108 0)
(0.700834 0.0327073 0)
(0.612014 0.0325574 0)
(0.520831 0.0321321 0)
(0.427598 0.0314059 0)
(0.332686 0.0303587 0)
(0.236519 0.0289786 0)
(0.139577 0.0272636 0)
(0.0423384 0.0252245 0)
(-0.0546281 0.0229274 0)
(-0.150672 0.0204373 0)
(-0.245235 0.0177601 0)
(-0.337898 0.0150433 0)
(-0.428106 0.0124053 0)
(-0.515447 0.00997792 0)
(-0.599606 0.00789504 0)
(-0.680382 0.00627717 0)
(10.0008 0.122271 0)
(10.0676 0.272111 0)
(10.1383 0.342274 0)
(10.1916 0.367483 0)
(10.2162 0.377146 0)
(10.2125 0.385639 0)
(10.1868 0.395616 0)
(10.1461 0.405007 0)
(10.0945 0.411702 0)
(10.0337 0.414945 0)
(9.96419 0.415051 0)
(9.88605 0.412708 0)
(9.79952 0.40846 0)
(9.70526 0.402587 0)
(9.60412 0.395128 0)
(9.49712 0.386035 0)
(9.38522 0.375242 0)
(9.26943 0.362731 0)
(9.15053 0.348523 0)
(9.02937 0.332718 0)
(8.90684 0.3155 0)
(8.78376 0.297127 0)
(8.66092 0.277896 0)
(8.53908 0.258129 0)
(8.41889 0.238162 0)
(8.30094 0.218319 0)
(8.18579 0.198897 0)
(8.07387 0.180166 0)
(7.96555 0.16235 0)
(7.86112 0.145623 0)
(7.76081 0.130107 0)
(7.66476 0.115873 0)
(7.57304 0.102952 0)
(7.48565 0.0913249 0)
(7.40258 0.0809384 0)
(7.32375 0.0717218 0)
(7.24904 0.063584 0)
(7.17834 0.0564292 0)
(7.11147 0.050163 0)
(7.04828 0.0446962 0)
(6.98865 0.0399409 0)
(6.93243 0.0358099 0)
(6.87948 0.0322109 0)
(6.82965 0.0290525 0)
(6.78281 0.0262598 0)
(6.73884 0.0237738 0)
(6.6976 0.0215383 0)
(6.659 0.0195039 0)
(6.62293 0.0176379 0)
(6.58927 0.0159153 0)
(6.55794 0.0143128 0)
(6.52887 0.0128231 0)
(6.50197 0.0114582 0)
(6.47714 0.0102281 0)
(6.45427 0.00912618 0)
(6.43329 0.00813421 0)
(6.4141 0.00723764 0)
(6.3966 0.00643341 0)
(6.38069 0.00572126 0)
(6.36629 0.00509174 0)
(6.35328 0.00452821 0)
(6.34156 0.00401811 0)
(6.33103 0.00355833 0)
(6.32162 0.00314871 0)
(6.31321 0.0027849 0)
(6.30572 0.00246146 0)
(6.29905 0.00217872 0)
(6.29312 0.00194389 0)
(6.28782 0.00176639 0)
(6.28308 0.00165173 0)
(6.27881 0.00159808 0)
(6.27491 0.00160119 0)
(6.27132 0.00166256 0)
(6.26791 0.00178357 0)
(6.26462 0.00195667 0)
(6.26137 0.00217442 0)
(6.25808 0.00243014 0)
(6.2547 0.00271554 0)
(6.25117 0.0030219 0)
(6.24744 0.00334113 0)
(6.24349 0.00366575 0)
(6.23927 0.00398915 0)
(6.23476 0.00430585 0)
(6.22997 0.00461177 0)
(6.22488 0.0049048 0)
(6.2195 0.00518533 0)
(6.21383 0.00545642 0)
(6.20788 0.00572336 0)
(6.20166 0.00599299 0)
(6.19518 0.00627265 0)
(6.18845 0.00656939 0)
(6.18147 0.00688906 0)
(6.17424 0.0072361 0)
(6.16677 0.00761352 0)
(6.15906 0.00802325 0)
(6.1511 0.00846659 0)
(6.14287 0.00894462 0)
(6.13436 0.00945869 0)
(6.12556 0.0100107 0)
(6.11643 0.0106034 0)
(6.10693 0.0112402 0)
(6.09703 0.0119252 0)
(6.08668 0.0126632 0)
(6.07582 0.0134591 0)
(6.0644 0.0143183 0)
(6.05234 0.0152458 0)
(6.03959 0.0162467 0)
(6.02606 0.0173259 0)
(6.01168 0.0184887 0)
(5.99637 0.0197402 0)
(5.98006 0.0210837 0)
(5.96264 0.0225239 0)
(5.94404 0.0240675 0)
(5.92416 0.0257192 0)
(5.90291 0.0274841 0)
(5.88018 0.0293681 0)
(5.85587 0.0313772 0)
(5.82986 0.033518 0)
(5.80204 0.0357973 0)
(5.77228 0.0382221 0)
(5.74046 0.0407997 0)
(5.70642 0.0435376 0)
(5.67003 0.0464433 0)
(5.63113 0.0495244 0)
(5.58954 0.0527881 0)
(5.54511 0.0562418 0)
(5.49763 0.0598921 0)
(5.44693 0.0637451 0)
(5.39278 0.0678062 0)
(5.33498 0.0720795 0)
(5.2733 0.0765681 0)
(5.20751 0.081273 0)
(5.13736 0.0861936 0)
(5.0626 0.0913264 0)
(4.98296 0.0966653 0)
(4.89817 0.102201 0)
(4.80795 0.107918 0)
(4.71202 0.1138 0)
(4.6101 0.119822 0)
(4.50189 0.125955 0)
(4.38712 0.132161 0)
(4.26549 0.138397 0)
(4.13675 0.144611 0)
(4.00063 0.150742 0)
(3.8569 0.15672 0)
(3.70535 0.162467 0)
(3.54581 0.167895 0)
(3.37815 0.17291 0)
(3.2023 0.177409 0)
(3.01824 0.181286 0)
(2.82606 0.18443 0)
(2.6259 0.186742 0)
(2.41808 0.188115 0)
(2.20296 0.188511 0)
(1.98119 0.187807 0)
(1.75344 0.185968 0)
(1.52064 0.183001 0)
(1.28393 0.178948 0)
(1.04467 0.173886 0)
(0.804388 0.16794 0)
(10.0003 0.0613984 0)
(10.0359 0.160281 0)
(10.0898 0.227749 0)
(10.1516 0.268342 0)
(10.2102 0.293136 0)
(10.2593 0.311954 0)
(10.2983 0.32976 0)
(10.3295 0.347159 0)
(10.356 0.362967 0)
(10.3794 0.37608 0)
(10.3999 0.386097 0)
(10.4172 0.393197 0)
(10.4307 0.397758 0)
(10.4399 0.400085 0)
(10.4447 0.40032 0)
(10.4451 0.398466 0)
(10.441 0.39448 0)
(10.4326 0.388339 0)
(10.42 0.380101 0)
(10.4032 0.369895 0)
(10.3825 0.357905 0)
(10.358 0.344363 0)
(10.3299 0.329543 0)
(10.2985 0.313742 0)
(10.2641 0.297275 0)
(10.227 0.280458 0)
(10.1877 0.263591 0)
(10.1465 0.24695 0)
(10.1037 0.230774 0)
(10.0597 0.215256 0)
(10.015 0.200542 0)
(9.96979 0.186734 0)
(9.92439 0.173882 0)
(9.87904 0.162004 0)
(9.83396 0.151079 0)
(9.78936 0.141061 0)
(9.74536 0.131882 0)
(9.70211 0.123471 0)
(9.65971 0.115763 0)
(9.61822 0.108696 0)
(9.57772 0.102203 0)
(9.53825 0.0962184 0)
(9.49982 0.0906684 0)
(9.46247 0.0854798 0)
(9.42623 0.080592 0)
(9.39111 0.075963 0)
(9.35713 0.0715573 0)
(9.3243 0.0673402 0)
(9.29263 0.0632869 0)
(9.26213 0.0593844 0)
(9.23279 0.0556194 0)
(9.20465 0.0519775 0)
(9.1777 0.0484601 0)
(9.15196 0.0450872 0)
(9.1274 0.0418688 0)
(9.10401 0.0387898 0)
(9.08182 0.0358318 0)
(9.0608 0.0329979 0)
(9.04095 0.0303039 0)
(9.02223 0.0277534 0)
(9.00461 0.0253347 0)
(8.98805 0.0230405 0)
(8.97254 0.0208776 0)
(8.95804 0.018857 0)
(8.94449 0.0169834 0)
(8.93184 0.0152558 0)
(8.92005 0.0136747 0)
(8.90907 0.0122463 0)
(8.89884 0.010981 0)
(8.88932 0.00988897 0)
(8.88044 0.008975 0)
(8.87215 0.0082386 0)
(8.86439 0.00767614 0)
(8.85709 0.00728343 0)
(8.85019 0.00705671 0)
(8.84364 0.00698681 0)
(8.83737 0.00706061 0)
(8.83132 0.00726316 0)
(8.82544 0.00757871 0)
(8.81965 0.00799146 0)
(8.81391 0.00848562 0)
(8.80816 0.00904534 0)
(8.80235 0.00965477 0)
(8.79643 0.0102987 0)
(8.79035 0.0109633 0)
(8.78405 0.0116364 0)
(8.7775 0.0123083 0)
(8.77063 0.0129716 0)
(8.7634 0.013621 0)
(8.75576 0.014253 0)
(8.74769 0.0148667 0)
(8.73917 0.0154627 0)
(8.73019 0.0160441 0)
(8.72076 0.0166167 0)
(8.71093 0.0171886 0)
(8.70072 0.0177704 0)
(8.69019 0.0183752 0)
(8.6794 0.0190177 0)
(8.66839 0.0197137 0)
(8.65722 0.0204795 0)
(8.64591 0.0213313 0)
(8.63448 0.0222841 0)
(8.62291 0.0233522 0)
(8.61119 0.0245478 0)
(8.59928 0.025882 0)
(8.58712 0.0273641 0)
(8.57463 0.0290025 0)
(8.56173 0.030804 0)
(8.54835 0.0327751 0)
(8.53438 0.0349229 0)
(8.51972 0.0372525 0)
(8.50428 0.0397705 0)
(8.48796 0.0424848 0)
(8.47065 0.0454033 0)
(8.45224 0.0485347 0)
(8.43264 0.051889 0)
(8.41174 0.0554773 0)
(8.38942 0.0593117 0)
(8.36558 0.0634053 0)
(8.34009 0.0677724 0)
(8.31284 0.0724279 0)
(8.28369 0.0773879 0)
(8.25251 0.0826688 0)
(8.21915 0.088288 0)
(8.18346 0.0942631 0)
(8.14528 0.100612 0)
(8.10444 0.107354 0)
(8.06076 0.114505 0)
(8.01404 0.122085 0)
(7.96407 0.130111 0)
(7.91065 0.138599 0)
(7.85354 0.147564 0)
(7.79249 0.15702 0)
(7.72726 0.166978 0)
(7.65756 0.177447 0)
(7.58311 0.188432 0)
(7.50361 0.199935 0)
(7.41875 0.21195 0)
(7.32818 0.224468 0)
(7.23158 0.237473 0)
(7.12857 0.25094 0)
(7.01878 0.264835 0)
(6.90184 0.279114 0)
(6.77733 0.293722 0)
(6.64487 0.308591 0)
(6.50403 0.323641 0)
(6.35441 0.338774 0)
(6.1956 0.35388 0)
(6.02721 0.368832 0)
(5.84884 0.383488 0)
(5.66016 0.397683 0)
(5.46084 0.411252 0)
(5.25063 0.423997 0)
(5.02932 0.435719 0)
(4.79682 0.446192 0)
(4.55313 0.455182 0)
(4.2984 0.462452 0)
(4.03293 0.467761 0)
(3.7572 0.470861 0)
(3.47194 0.471514 0)
(10.0002 0.0417638 0)
(10.0198 0.117222 0)
(10.0538 0.178823 0)
(10.0983 0.224365 0)
(10.1469 0.256383 0)
(10.1936 0.279804 0)
(10.2357 0.298998 0)
(10.2735 0.316295 0)
(10.3085 0.332076 0)
(10.3426 0.345836 0)
(10.3765 0.357081 0)
(10.4102 0.365673 0)
(10.4434 0.371767 0)
(10.4756 0.37561 0)
(10.5064 0.377398 0)
(10.5355 0.377227 0)
(10.5628 0.375131 0)
(10.588 0.371136 0)
(10.6111 0.365305 0)
(10.6318 0.357743 0)
(10.6501 0.348593 0)
(10.6657 0.338038 0)
(10.6787 0.326288 0)
(10.6889 0.31358 0)
(10.6964 0.300162 0)
(10.7012 0.286289 0)
(10.7034 0.272204 0)
(10.7032 0.258138 0)
(10.7008 0.244291 0)
(10.6964 0.230834 0)
(10.6902 0.217903 0)
(10.6824 0.2056 0)
(10.6733 0.193992 0)
(10.663 0.183114 0)
(10.6518 0.172977 0)
(10.6398 0.163564 0)
(10.6273 0.154837 0)
(10.6142 0.146752 0)
(10.6008 0.139258 0)
(10.5872 0.132298 0)
(10.5733 0.125811 0)
(10.5594 0.119738 0)
(10.5453 0.114025 0)
(10.5312 0.108615 0)
(10.5171 0.103455 0)
(10.503 0.0985078 0)
(10.489 0.0937484 0)
(10.4751 0.089153 0)
(10.4613 0.0847002 0)
(10.4476 0.0803761 0)
(10.4341 0.0761661 0)
(10.4207 0.0720526 0)
(10.4075 0.068035 0)
(10.3945 0.0641378 0)
(10.3818 0.0603803 0)
(10.3693 0.0567495 0)
(10.357 0.0532221 0)
(10.3451 0.0498012 0)
(10.3334 0.0465126 0)
(10.3221 0.0433698 0)
(10.3111 0.0403623 0)
(10.3004 0.0374794 0)
(10.29 0.0347284 0)
(10.28 0.0321253 0)
(10.2703 0.0296795 0)
(10.2609 0.027393 0)
(10.2519 0.0252691 0)
(10.2431 0.0233176 0)
(10.2347 0.0215508 0)
(10.2266 0.019978 0)
(10.2188 0.0186022 0)
(10.2113 0.0174225 0)
(10.204 0.0164389 0)
(10.197 0.0156528 0)
(10.1902 0.0150627 0)
(10.1837 0.0146607 0)
(10.1773 0.0144352 0)
(10.1711 0.0143738 0)
(10.1651 0.0144629 0)
(10.1592 0.0146875 0)
(10.1534 0.0150322 0)
(10.1477 0.0154812 0)
(10.142 0.0160207 0)
(10.1362 0.0166401 0)
(10.1304 0.0173335 0)
(10.1245 0.0181003 0)
(10.1185 0.0189436 0)
(10.1123 0.0198684 0)
(10.1059 0.0208774 0)
(10.0991 0.021968 0)
(10.092 0.0231294 0)
(10.0844 0.0243428 0)
(10.0762 0.0255817 0)
(10.0674 0.0268165 0)
(10.0579 0.0280179 0)
(10.0477 0.0291626 0)
(10.0368 0.0302365 0)
(10.0252 0.0312381 0)
(10.0132 0.0321785 0)
(10.0007 0.0330811 0)
(9.98784 0.0339788 0)
(9.97482 0.0349112 0)
(9.9617 0.0359208 0)
(9.94856 0.0370498 0)
(9.93547 0.038338 0)
(9.92243 0.0398201 0)
(9.90945 0.0415259 0)
(9.8965 0.0434791 0)
(9.88352 0.0456975 0)
(9.87044 0.0481959 0)
(9.85716 0.0509855 0)
(9.84359 0.0540746 0)
(9.82962 0.0574697 0)
(9.81515 0.061178 0)
(9.80005 0.0652077 0)
(9.78422 0.0695676 0)
(9.76755 0.0742685 0)
(9.74993 0.0793227 0)
(9.73124 0.0847448 0)
(9.71139 0.0905513 0)
(9.69025 0.0967608 0)
(9.66773 0.103393 0)
(9.64369 0.110471 0)
(9.61803 0.118018 0)
(9.59062 0.126059 0)
(9.56133 0.134619 0)
(9.53002 0.143725 0)
(9.49655 0.153406 0)
(9.46077 0.163688 0)
(9.42251 0.174601 0)
(9.3816 0.186172 0)
(9.33787 0.198429 0)
(9.29111 0.211396 0)
(9.24113 0.225101 0)
(9.1877 0.239564 0)
(9.13059 0.254805 0)
(9.06956 0.270841 0)
(9.00434 0.287683 0)
(8.93466 0.305338 0)
(8.86023 0.323805 0)
(8.78072 0.343076 0)
(8.69582 0.363133 0)
(8.60518 0.383951 0)
(8.50842 0.405489 0)
(8.40517 0.427695 0)
(8.29502 0.450501 0)
(8.17755 0.473825 0)
(8.05231 0.497564 0)
(7.91887 0.521597 0)
(7.77675 0.545782 0)
(7.62548 0.569953 0)
(7.46458 0.593925 0)
(7.29359 0.61748 0)
(7.11205 0.640379 0)
(6.91953 0.662351 0)
(6.71564 0.683098 0)
(6.50005 0.70229 0)
(6.27248 0.719579 0)
(6.03277 0.734582 0)
(5.78087 0.746903 0)
(10.0001 0.031642 0)
(10.0129 0.0916768 0)
(10.036 0.144926 0)
(10.0682 0.188535 0)
(10.106 0.222061 0)
(10.1452 0.247431 0)
(10.1831 0.267451 0)
(10.2185 0.284418 0)
(10.252 0.299429 0)
(10.2846 0.312613 0)
(10.3172 0.323711 0)
(10.3502 0.332508 0)
(10.3835 0.338986 0)
(10.4168 0.343278 0)
(10.4497 0.345559 0)
(10.4819 0.345976 0)
(10.5132 0.34463 0)
(10.5436 0.341595 0)
(10.5729 0.336947 0)
(10.6009 0.330784 0)
(10.6275 0.323232 0)
(10.6525 0.314444 0)
(10.6758 0.304597 0)
(10.6973 0.293887 0)
(10.7169 0.28252 0)
(10.7346 0.270705 0)
(10.7504 0.258647 0)
(10.7643 0.246537 0)
(10.7764 0.234547 0)
(10.7868 0.222823 0)
(10.7957 0.211486 0)
(10.8032 0.200631 0)
(10.8095 0.190323 0)
(10.8146 0.180603 0)
(10.8188 0.171488 0)
(10.8221 0.162977 0)
(10.8247 0.155043 0)
(10.8266 0.147651 0)
(10.8281 0.140761 0)
(10.829 0.134324 0)
(10.8296 0.128293 0)
(10.8298 0.122624 0)
(10.8296 0.117274 0)
(10.8291 0.112195 0)
(10.8284 0.107339 0)
(10.8274 0.102671 0)
(10.8261 0.0981695 0)
(10.8246 0.0938171 0)
(10.8229 0.0895964 0)
(10.8209 0.0854924 0)
(10.8187 0.0814883 0)
(10.8163 0.0775656 0)
(10.8137 0.0737222 0)
(10.8109 0.0699803 0)
(10.808 0.066359 0)
(10.8048 0.0628453 0)
(10.8015 0.0594147 0)
(10.798 0.0560694 0)
(10.7945 0.0528377 0)
(10.7908 0.0497363 0)
(10.787 0.0467548 0)
(10.7831 0.0438806 0)
(10.7792 0.0411224 0)
(10.7751 0.0385013 0)
(10.771 0.0360309 0)
(10.7669 0.0337135 0)
(10.7627 0.0315516 0)
(10.7584 0.0295548 0)
(10.7541 0.0277342 0)
(10.7499 0.0260959 0)
(10.7456 0.024642 0)
(10.7413 0.0233747 0)
(10.737 0.0222981 0)
(10.7327 0.0214138 0)
(10.7284 0.0207191 0)
(10.7242 0.0202077 0)
(10.72 0.019872 0)
(10.7158 0.0197059 0)
(10.7117 0.0197029 0)
(10.7075 0.0198556 0)
(10.7034 0.0201545 0)
(10.6993 0.0205879 0)
(10.6951 0.0211425 0)
(10.6909 0.021805 0)
(10.6866 0.0225662 0)
(10.6822 0.0234233 0)
(10.6777 0.0243823 0)
(10.6731 0.0254573 0)
(10.6683 0.0266676 0)
(10.6633 0.0280314 0)
(10.6581 0.02956 0)
(10.6525 0.031251 0)
(10.6464 0.033085 0)
(10.6397 0.0350251 0)
(10.6324 0.0370202 0)
(10.6242 0.0390112 0)
(10.6152 0.0409392 0)
(10.6053 0.0427544 0)
(10.5946 0.0444231 0)
(10.5831 0.0459325 0)
(10.571 0.0472923 0)
(10.5583 0.0485336 0)
(10.5453 0.0497052 0)
(10.5321 0.050868 0)
(10.5188 0.05209 0)
(10.5055 0.0534398 0)
(10.4924 0.0549826 0)
(10.4794 0.0567768 0)
(10.4665 0.0588712 0)
(10.4538 0.0613064 0)
(10.4412 0.0641145 0)
(10.4287 0.0673186 0)
(10.416 0.0709347 0)
(10.4033 0.0749756 0)
(10.3902 0.079452 0)
(10.3768 0.0843726 0)
(10.363 0.089747 0)
(10.3486 0.0955856 0)
(10.3335 0.101901 0)
(10.3176 0.108709 0)
(10.3009 0.116026 0)
(10.2832 0.123874 0)
(10.2644 0.132275 0)
(10.2444 0.141255 0)
(10.2231 0.150843 0)
(10.2005 0.161068 0)
(10.1763 0.171962 0)
(10.1506 0.183559 0)
(10.1231 0.195894 0)
(10.0938 0.209001 0)
(10.0625 0.222918 0)
(10.0292 0.237679 0)
(9.99353 0.253322 0)
(9.95549 0.26988 0)
(9.91489 0.287387 0)
(9.87156 0.305875 0)
(9.82532 0.325372 0)
(9.77597 0.345902 0)
(9.72331 0.367486 0)
(9.66712 0.390138 0)
(9.60718 0.413865 0)
(9.54323 0.438666 0)
(9.47501 0.464531 0)
(9.40224 0.491438 0)
(9.32464 0.519353 0)
(9.24188 0.548227 0)
(9.15362 0.577995 0)
(9.05952 0.608572 0)
(8.9592 0.639856 0)
(8.85226 0.671721 0)
(8.73829 0.704013 0)
(8.61685 0.736559 0)
(8.4875 0.769145 0)
(8.34976 0.801534 0)
(8.20317 0.833449 0)
(8.04725 0.864573 0)
(7.88152 0.894558 0)
(7.70552 0.923005 0)
(7.5188 0.94949 0)
(7.32097 0.973543 0)
(10.0001 0.025309 0)
(10.0092 0.0742194 0)
(10.0261 0.119313 0)
(10.0502 0.158404 0)
(10.0798 0.190446 0)
(10.1122 0.215869 0)
(10.1452 0.236126 0)
(10.1775 0.252855 0)
(10.2085 0.267238 0)
(10.2389 0.279771 0)
(10.2691 0.290458 0)
(10.2996 0.29915 0)
(10.3305 0.305759 0)
(10.3616 0.310322 0)
(10.3926 0.312963 0)
(10.4232 0.313834 0)
(10.4533 0.313068 0)
(10.4826 0.310771 0)
(10.5112 0.307032 0)
(10.5389 0.301949 0)
(10.5656 0.295631 0)
(10.5911 0.288212 0)
(10.6154 0.279841 0)
(10.6383 0.270684 0)
(10.6598 0.260916 0)
(10.6798 0.250716 0)
(10.6983 0.240255 0)
(10.7154 0.229699 0)
(10.7311 0.219195 0)
(10.7454 0.208871 0)
(10.7585 0.198837 0)
(10.7704 0.189177 0)
(10.7813 0.179956 0)
(10.7912 0.171214 0)
(10.8004 0.162973 0)
(10.8088 0.155238 0)
(10.8165 0.147992 0)
(10.8237 0.141209 0)
(10.8304 0.134857 0)
(10.8366 0.128901 0)
(10.8425 0.123301 0)
(10.848 0.118028 0)
(10.8532 0.113046 0)
(10.8581 0.108314 0)
(10.8626 0.10379 0)
(10.8669 0.0994446 0)
(10.8709 0.0952578 0)
(10.8747 0.0912118 0)
(10.8781 0.0872935 0)
(10.8813 0.0834916 0)
(10.8842 0.0797881 0)
(10.8868 0.0761621 0)
(10.8891 0.0726097 0)
(10.8912 0.0691508 0)
(10.8931 0.0658018 0)
(10.8946 0.0625512 0)
(10.8958 0.0593764 0)
(10.8968 0.0562786 0)
(10.8976 0.0532832 0)
(10.8982 0.0504061 0)
(10.8984 0.0476394 0)
(10.8985 0.0449727 0)
(10.8983 0.0424154 0)
(10.8979 0.0399885 0)
(10.8974 0.0377038 0)
(10.8966 0.0355618 0)
(10.8956 0.033563 0)
(10.8944 0.0317146 0)
(10.8931 0.030026 0)
(10.8917 0.0285042 0)
(10.8901 0.0271544 0)
(10.8884 0.0259821 0)
(10.8865 0.0249913 0)
(10.8846 0.0241833 0)
(10.8826 0.0235552 0)
(10.8804 0.023102 0)
(10.8783 0.0228183 0)
(10.876 0.0227 0)
(10.8737 0.0227444 0)
(10.8714 0.0229486 0)
(10.869 0.023308 0)
(10.8665 0.0238142 0)
(10.864 0.0244545 0)
(10.8613 0.025214 0)
(10.8586 0.0260789 0)
(10.8557 0.0270427 0)
(10.8528 0.0281108 0)
(10.8497 0.0293029 0)
(10.8465 0.0306515 0)
(10.8431 0.0321958 0)
(10.8396 0.0339728 0)
(10.8358 0.0360066 0)
(10.8317 0.0382993 0)
(10.8271 0.0408253 0)
(10.822 0.0435308 0)
(10.8161 0.0463385 0)
(10.8096 0.049157 0)
(10.8021 0.0518933 0)
(10.7938 0.0544652 0)
(10.7847 0.0568122 0)
(10.7748 0.0589028 0)
(10.7642 0.0607379 0)
(10.7531 0.0623501 0)
(10.7415 0.063798 0)
(10.7296 0.0651607 0)
(10.7176 0.0665285 0)
(10.7056 0.0679959 0)
(10.6936 0.069654 0)
(10.6816 0.0715862 0)
(10.6698 0.0738645 0)
(10.6582 0.0765482 0)
(10.6466 0.0796841 0)
(10.635 0.0833069 0)
(10.6234 0.0874418 0)
(10.6117 0.0921078 0)
(10.5998 0.0973186 0)
(10.5877 0.103086 0)
(10.5752 0.109419 0)
(10.5622 0.116331 0)
(10.5486 0.123834 0)
(10.5344 0.131945 0)
(10.5195 0.140683 0)
(10.5038 0.15007 0)
(10.4871 0.160131 0)
(10.4695 0.170896 0)
(10.4508 0.182396 0)
(10.4309 0.194665 0)
(10.4098 0.20774 0)
(10.3873 0.221659 0)
(10.3633 0.236462 0)
(10.3378 0.25219 0)
(10.3107 0.268886 0)
(10.2818 0.286591 0)
(10.251 0.305347 0)
(10.2182 0.325194 0)
(10.1833 0.346173 0)
(10.1461 0.36832 0)
(10.1066 0.391669 0)
(10.0645 0.416249 0)
(10.0197 0.442086 0)
(9.97207 0.469199 0)
(9.92139 0.497598 0)
(9.86748 0.527286 0)
(9.81015 0.558254 0)
(9.7492 0.590484 0)
(9.6844 0.623942 0)
(9.61551 0.658577 0)
(9.54228 0.694327 0)
(9.46446 0.731101 0)
(9.38174 0.768796 0)
(9.29384 0.807275 0)
(9.20043 0.846379 0)
(9.10117 0.88592 0)
(8.9957 0.925668 0)
(8.88364 0.965367 0)
(8.76459 1.00471 0)
(8.63812 1.04336 0)
(8.5038 1.08092 0)
(8.36118 1.11696 0)
(8.20979 1.151 0)
(10.0001 0.0208108 0)
(10.007 0.0614249 0)
(10.02 0.0995894 0)
(10.0388 0.133901 0)
(10.0623 0.163344 0)
(10.0892 0.187736 0)
(10.1178 0.207661 0)
(10.1467 0.224105 0)
(10.1753 0.238012 0)
(10.2035 0.249973 0)
(10.2316 0.260189 0)
(10.2599 0.26863 0)
(10.2885 0.27522 0)
(10.3174 0.279951 0)
(10.3462 0.282896 0)
(10.3749 0.284179 0)
(10.4032 0.283935 0)
(10.4309 0.282282 0)
(10.4579 0.279321 0)
(10.4842 0.275148 0)
(10.5096 0.269867 0)
(10.5341 0.263593 0)
(10.5576 0.256453 0)
(10.5799 0.248591 0)
(10.601 0.240155 0)
(10.6209 0.231298 0)
(10.6395 0.222167 0)
(10.6569 0.212905 0)
(10.673 0.203641 0)
(10.6881 0.194487 0)
(10.702 0.18554 0)
(10.7149 0.17688 0)
(10.727 0.168566 0)
(10.7382 0.160639 0)
(10.7486 0.153124 0)
(10.7584 0.146031 0)
(10.7676 0.139351 0)
(10.7763 0.133068 0)
(10.7845 0.127159 0)
(10.7923 0.121599 0)
(10.7997 0.116358 0)
(10.8069 0.111413 0)
(10.8136 0.106736 0)
(10.8201 0.102293 0)
(10.8263 0.0980492 0)
(10.8322 0.0939797 0)
(10.8379 0.0900629 0)
(10.8433 0.0862806 0)
(10.8485 0.0826239 0)
(10.8534 0.0790874 0)
(10.858 0.0756544 0)
(10.8622 0.0723023 0)
(10.8663 0.0690252 0)
(10.8702 0.0658394 0)
(10.8737 0.0627595 0)
(10.877 0.0597762 0)
(10.8799 0.0568698 0)
(10.8826 0.0540392 0)
(10.8851 0.0513044 0)
(10.8874 0.0486808 0)
(10.8893 0.0461647 0)
(10.891 0.0437487 0)
(10.8925 0.0414386 0)
(10.8937 0.03925 0)
(10.8948 0.0371926 0)
(10.8955 0.0352674 0)
(10.8961 0.0334752 0)
(10.8965 0.0318231 0)
(10.8966 0.0303213 0)
(10.8966 0.0289779 0)
(10.8964 0.0277982 0)
(10.8961 0.0267861 0)
(10.8956 0.0259447 0)
(10.895 0.0252746 0)
(10.8943 0.0247733 0)
(10.8934 0.0244355 0)
(10.8924 0.024256 0)
(10.8914 0.0242314 0)
(10.8903 0.0243615 0)
(10.8891 0.0246471 0)
(10.8878 0.0250882 0)
(10.8864 0.0256806 0)
(10.8849 0.0264146 0)
(10.8833 0.0272757 0)
(10.8817 0.0282487 0)
(10.8799 0.0293245 0)
(10.878 0.0305068 0)
(10.876 0.0318163 0)
(10.8739 0.0332918 0)
(10.8717 0.0349847 0)
(10.8693 0.0369495 0)
(10.8667 0.039231 0)
(10.8639 0.0418519 0)
(10.8608 0.0448027 0)
(10.8572 0.0480374 0)
(10.8532 0.051476 0)
(10.8486 0.0550122 0)
(10.8433 0.0585272 0)
(10.8374 0.0619047 0)
(10.8307 0.0650463 0)
(10.8233 0.0678828 0)
(10.8153 0.0703827 0)
(10.8066 0.0725539 0)
(10.7975 0.0744415 0)
(10.788 0.0761213 0)
(10.7781 0.0776913 0)
(10.7681 0.0792617 0)
(10.7579 0.0809452 0)
(10.7477 0.0828511 0)
(10.7374 0.0850777 0)
(10.7272 0.087708 0)
(10.7169 0.090812 0)
(10.7065 0.0944443 0)
(10.6962 0.0986455 0)
(10.6856 0.103446 0)
(10.6749 0.108866 0)
(10.664 0.114924 0)
(10.6527 0.121632 0)
(10.6411 0.129003 0)
(10.629 0.137051 0)
(10.6163 0.145791 0)
(10.603 0.155241 0)
(10.589 0.165423 0)
(10.5742 0.176362 0)
(10.5586 0.188086 0)
(10.5421 0.200629 0)
(10.5246 0.214025 0)
(10.506 0.228313 0)
(10.4862 0.243533 0)
(10.4652 0.259728 0)
(10.4429 0.276943 0)
(10.4192 0.295222 0)
(10.3939 0.314612 0)
(10.3671 0.33516 0)
(10.3386 0.35691 0)
(10.3083 0.379908 0)
(10.2762 0.404196 0)
(10.242 0.429814 0)
(10.2057 0.456798 0)
(10.1671 0.485179 0)
(10.1262 0.514983 0)
(10.0829 0.54623 0)
(10.0368 0.578928 0)
(9.98802 0.613081 0)
(9.9363 0.648674 0)
(9.88149 0.685687 0)
(9.82344 0.72408 0)
(9.76197 0.763797 0)
(9.6969 0.804768 0)
(9.62803 0.846891 0)
(9.55516 0.890053 0)
(9.47808 0.934106 0)
(9.39657 0.978871 0)
(9.31036 1.02415 0)
(9.21922 1.06969 0)
(9.12284 1.11521 0)
(9.02095 1.16039 0)
(8.9132 1.20486 0)
(8.79924 1.24821 0)
(8.67871 1.28995 0)
(10.0001 0.0174139 0)
(10.0056 0.0515899 0)
(10.016 0.0840969 0)
(10.0311 0.114003 0)
(10.0504 0.1405 0)
(10.0729 0.163214 0)
(10.0976 0.182278 0)
(10.1234 0.198197 0)
(10.1495 0.211606 0)
(10.1757 0.223024 0)
(10.2019 0.232737 0)
(10.2282 0.240819 0)
(10.2549 0.247251 0)
(10.2818 0.252019 0)
(10.3087 0.255164 0)
(10.3356 0.256774 0)
(10.3622 0.256966 0)
(10.3884 0.255856 0)
(10.414 0.253549 0)
(10.439 0.250142 0)
(10.4632 0.245732 0)
(10.4866 0.240421 0)
(10.5091 0.234322 0)
(10.5306 0.227558 0)
(10.551 0.220257 0)
(10.5704 0.21255 0)
(10.5887 0.204564 0)
(10.6058 0.196423 0)
(10.6219 0.188239 0)
(10.637 0.180111 0)
(10.6511 0.172127 0)
(10.6643 0.164358 0)
(10.6766 0.156858 0)
(10.6882 0.149669 0)
(10.6991 0.142817 0)
(10.7093 0.136314 0)
(10.719 0.130161 0)
(10.7281 0.124348 0)
(10.7368 0.118861 0)
(10.7451 0.113681 0)
(10.753 0.108788 0)
(10.7606 0.104161 0)
(10.7678 0.0997781 0)
(10.7747 0.0956129 0)
(10.7814 0.0916364 0)
(10.7877 0.0878265 0)
(10.7939 0.0841645 0)
(10.7998 0.0806338 0)
(10.8054 0.0772277 0)
(10.8108 0.073944 0)
(10.8158 0.0707696 0)
(10.8206 0.0676819 0)
(10.8251 0.0646706 0)
(10.8295 0.0617465 0)
(10.8336 0.0589233 0)
(10.8374 0.0561959 0)
(10.8409 0.0535481 0)
(10.8441 0.0509763 0)
(10.8472 0.0484954 0)
(10.8501 0.0461201 0)
(10.8526 0.0438509 0)
(10.8549 0.0416806 0)
(10.857 0.0396105 0)
(10.8589 0.0376521 0)
(10.8605 0.0358163 0)
(10.8619 0.0341073 0)
(10.8631 0.0325276 0)
(10.8641 0.0310828 0)
(10.8649 0.0297807 0)
(10.8656 0.0286269 0)
(10.866 0.0276244 0)
(10.8664 0.0267761 0)
(10.8665 0.0260847 0)
(10.8666 0.025551 0)
(10.8665 0.0251728 0)
(10.8663 0.0249457 0)
(10.8659 0.0248661 0)
(10.8655 0.0249328 0)
(10.865 0.0251485 0)
(10.8644 0.0255172 0)
(10.8638 0.026042 0)
(10.863 0.0267211 0)
(10.8622 0.0275464 0)
(10.8612 0.0285037 0)
(10.8602 0.0295772 0)
(10.8591 0.0307566 0)
(10.8579 0.0320446 0)
(10.8566 0.033463 0)
(10.8552 0.0350536 0)
(10.8537 0.0368746 0)
(10.852 0.0389904 0)
(10.8502 0.0414585 0)
(10.8483 0.044315 0)
(10.8461 0.0475628 0)
(10.8436 0.0511645 0)
(10.8408 0.0550429 0)
(10.8376 0.0590879 0)
(10.8339 0.0631693 0)
(10.8298 0.0671529 0)
(10.8251 0.0709178 0)
(10.82 0.0743704 0)
(10.8142 0.0774554 0)
(10.808 0.0801603 0)
(10.8013 0.0825152 0)
(10.7942 0.0845874 0)
(10.7867 0.0864735 0)
(10.7789 0.0882884 0)
(10.7709 0.0901549 0)
(10.7626 0.0921968 0)
(10.7541 0.094529 0)
(10.7455 0.0972508 0)
(10.7367 0.100449 0)
(10.7278 0.104195 0)
(10.7187 0.108541 0)
(10.7094 0.11353 0)
(10.6998 0.119191 0)
(10.6899 0.125547 0)
(10.6797 0.132617 0)
(10.6691 0.140416 0)
(10.6581 0.148959 0)
(10.6465 0.158264 0)
(10.6343 0.168349 0)
(10.6215 0.179236 0)
(10.608 0.190951 0)
(10.5937 0.203523 0)
(10.5785 0.216985 0)
(10.5625 0.231374 0)
(10.5454 0.24673 0)
(10.5273 0.263095 0)
(10.5081 0.280513 0)
(10.4877 0.299032 0)
(10.466 0.3187 0)
(10.443 0.339567 0)
(10.4185 0.361681 0)
(10.3925 0.385093 0)
(10.3648 0.40985 0)
(10.3355 0.435999 0)
(10.3043 0.463584 0)
(10.2713 0.492644 0)
(10.2362 0.523218 0)
(10.199 0.555333 0)
(10.1596 0.589014 0)
(10.1178 0.624276 0)
(10.0736 0.661122 0)
(10.0268 0.699552 0)
(9.97725 0.739539 0)
(9.92489 0.781058 0)
(9.86955 0.824055 0)
(9.8111 0.86846 0)
(9.7494 0.914191 0)
(9.68432 0.961124 0)
(9.61569 1.00913 0)
(9.54337 1.05805 0)
(9.46719 1.10766 0)
(9.38698 1.15776 0)
(9.30257 1.20806 0)
(9.21374 1.25827 0)
(9.12029 1.30803 0)
(9.02199 1.35694 0)
(8.91857 1.40459 0)
(10 0.0147352 0)
(10.0046 0.0437475 0)
(10.0132 0.0715928 0)
(10.0257 0.0975829 0)
(10.0419 0.121126 0)
(10.0611 0.14183 0)
(10.0826 0.159619 0)
(10.1056 0.174708 0)
(10.1294 0.187472 0)
(10.1535 0.198298 0)
(10.1779 0.207465 0)
(10.2026 0.215108 0)
(10.2275 0.221264 0)
(10.2527 0.225938 0)
(10.278 0.229158 0)
(10.3033 0.230986 0)
(10.3285 0.231514 0)
(10.3533 0.230845 0)
(10.3776 0.22908 0)
(10.4014 0.226314 0)
(10.4246 0.22264 0)
(10.447 0.218152 0)
(10.4686 0.212948 0)
(10.4894 0.207135 0)
(10.5092 0.200825 0)
(10.5281 0.194129 0)
(10.546 0.187158 0)
(10.5629 0.180018 0)
(10.5789 0.172808 0)
(10.5939 0.165614 0)
(10.608 0.158514 0)
(10.6213 0.151572 0)
(10.6338 0.144839 0)
(10.6456 0.138352 0)
(10.6567 0.132139 0)
(10.6672 0.126216 0)
(10.6771 0.120587 0)
(10.6865 0.11525 0)
(10.6954 0.110196 0)
(10.7039 0.105412 0)
(10.712 0.100882 0)
(10.7198 0.0965873 0)
(10.7273 0.0925136 0)
(10.7344 0.0886401 0)
(10.7412 0.0849439 0)
(10.7477 0.0814074 0)
(10.754 0.0780161 0)
(10.7601 0.0747551 0)
(10.7659 0.0716145 0)
(10.7714 0.0685909 0)
(10.7766 0.0656755 0)
(10.7815 0.0628489 0)
(10.7862 0.0600976 0)
(10.7908 0.0574274 0)
(10.7951 0.0548518 0)
(10.799 0.0523715 0)
(10.8027 0.0499741 0)
(10.8061 0.0476531 0)
(10.8094 0.0454184 0)
(10.8125 0.0432832 0)
(10.8153 0.0412497 0)
(10.8178 0.039312 0)
(10.8201 0.0374697 0)
(10.8222 0.0357331 0)
(10.8242 0.0341141 0)
(10.8259 0.0326177 0)
(10.8273 0.0312442 0)
(10.8287 0.0299953 0)
(10.8298 0.0288756 0)
(10.8308 0.02789 0)
(10.8316 0.0270427 0)
(10.8322 0.0263376 0)
(10.8327 0.0257783 0)
(10.8331 0.0253661 0)
(10.8334 0.0250999 0)