/*--------------------------------*- C++ -*----------------------------------*\
| =========                 |                                                 |
| \\      /  F ield         | OpenFOAM: The Open Source CFD Toolbox           |
|  \\    /   O peration     | Version:  2306                                  |
|   \\  /    A nd           | Website:  www.openfoam.com                      |
|    \\/     M anipulation  |                                                 |
\*---------------------------------------------------------------------------*/
FoamFile
{
    version     2.0;
    format      ascii;
    arch        "LSB;label=32;scalar=64";
    class       volScalarField;
    location    "0.3";
    object      p;
}
// * * * * * * * * * * * * * * * * * * * * * * * * * * * * * * * * * * * * * //

dimensions      [0 2 -2 0 0 0 0];

internalField   nonuniform List<scalar> 
4400
(
404.829
403.814
402.906
402.234
401.785
401.478
401.234
401.005
400.771
400.531
400.285
400.037
399.79
399.545
399.3
399.057
398.814
398.57
398.326
398.082
397.837
397.593
397.349
397.106
396.864
396.623
396.384
396.148
395.915
395.685
395.46
395.238
395.023
394.813
394.61
394.414
394.226
394.047
393.877
393.717
393.568
393.43
393.304
393.19
393.09
393.002
392.928
392.867
392.819
392.785
392.762
392.751
392.749
392.754
392.763
392.772
392.777
392.771
392.749
392.704
392.629
392.52
392.377
392.212
392.073
392.004
392.08
392.375
392.922
393.694
394.602
395.369
395.719
395.587
395.539
395.507
395.953
396.182
395.957
395.76
403.367
403.025
402.592
402.151
401.76
401.435
401.167
400.931
400.708
400.483
400.252
400.015
399.774
399.531
399.288
399.045
398.803
398.56
398.317
398.075
397.831
397.588
397.345
397.103
396.861
396.621
396.383
396.147
395.914
395.684
395.459
395.238
395.022
394.812
394.608
394.412
394.223
394.043
393.871
393.709
393.557
393.417
393.288
393.171
393.067
392.975
392.897
392.831
392.78
392.74
392.714
392.697
392.691
392.69
392.695
392.7
392.702
392.694
392.67
392.625
392.55
392.444
392.305
392.147
392.007
391.946
392.041
392.386
393.029
393.973
395.11
396.104
396.235
395.498
395.058
394.889
395.133
395.807
396.071
395.915
402.821
402.656
402.398
402.081
401.747
401.432
401.15
400.901
400.672
400.45
400.227
399.998
399.763
399.523
399.281
399.039
398.796
398.554
398.312
398.07
397.827
397.585
397.342
397.101
396.86
396.62
396.382
396.146
395.914
395.683
395.458
395.235
395.019
394.807
394.601
394.402
394.21
394.026
393.85
393.683
393.525
393.378
393.24
393.114
392.998
392.894
392.801
392.72
392.65
392.592
392.543
392.504
392.472
392.447
392.425
392.403
392.378
392.345
392.301
392.241
392.165
392.069
391.966
391.866
391.813
391.856
392.057
392.445
393.031
393.793
394.606
395.23
395.467
395.361
395.454
395.769
396.349
397.261
396.726
395.722
402.406
402.306
402.132
401.9
401.633
401.361
401.099
400.853
400.624
400.403
400.183
399.961
399.733
399.5
399.263
399.023
398.782
398.541
398.3
398.059
397.818
397.576
397.335
397.094
396.853
396.614
396.376
396.141
395.907
395.677
395.449
395.226
395.007
394.793
394.585
394.382
394.186
393.996
393.814
393.639
393.473
393.316
393.167
393.028
392.898
392.778
392.667
392.567
392.475
392.393
392.318
392.251
392.189
392.131
392.076
392.018
391.96
391.893
391.821
391.739
391.649
391.557
391.471
391.41
391.403
391.476
391.669
391.974
392.415
392.941
393.521
394.037
394.45
394.744
394.977
395.209
395.426
395.684
395.85
396.233
402.106
402.037
401.913
401.738
401.526
401.293
401.055
400.821
400.594
400.373
400.155
399.935
399.711
399.482
399.249
399.012
398.774
398.533
398.293
398.052
397.811
397.57
397.329
397.088
396.847
396.608
396.37
396.134
395.899
395.668
395.438
395.213
394.991
394.775
394.562
394.355
394.154
393.958
393.769
393.586
393.412
393.243
393.084
392.93
392.786
392.65
392.521
392.4
392.286
392.178
392.077
391.98
391.886
391.795
391.703
391.611
391.513
391.414
391.306
391.197
391.084
390.976
390.883
390.816
390.794
390.831
390.946
391.139
391.427
391.773
392.195
392.6
393.017
393.332
393.62
393.826
394.114
394.494
394.974
395.296
401.888
401.836
401.739
401.6
401.425
401.225
401.01
400.789
400.567
400.348
400.13
399.911
399.689
399.463
399.233
398.999
398.763
398.524
398.285
398.044
397.803
397.561
397.32
397.079
396.839
396.599
396.36
396.122
395.886
395.653
395.422
395.195
394.97
394.75
394.533
394.321
394.114
393.912
393.716
393.524
393.341
393.161
392.991
392.823
392.666
392.512
392.365
392.224
392.086
391.956
391.826
391.703
391.574
391.454
391.324
391.199
391.063
390.929
390.785
390.644
390.498
390.361
390.235
390.13
390.058
390.024
390.047
390.122
390.269
390.46
390.721
390.977
391.278
391.515
391.769
391.999
392.291
392.648
392.985
393.175
401.729
401.687
401.606
401.488
401.338
401.161
400.965
400.757
400.542
400.326
400.109
399.891
399.67
399.446
399.218
398.986
398.752
398.514
398.276
398.035
397.794
397.552
397.311
397.069
396.828
396.587
396.347
396.108
395.871
395.635
395.402
395.172
394.943
394.719
394.498
394.281
394.068
393.86
393.656
393.458
393.262
393.075
392.89
392.711
392.537
392.368
392.203
392.042
391.884
391.727
391.575
391.419
391.265
391.11
390.948
390.788
390.616
390.447
390.264
390.087
389.9
389.722
389.548
389.387
389.248
389.129
389.057
389.004
389.021
389.054
389.145
389.259
389.375
389.528
389.653
389.838
390.02
390.259
390.471
390.666
401.618
401.58
401.509
401.404
401.27
401.109
400.927
400.729
400.521
400.309
400.094
399.875
399.655
399.431
399.205
398.975
398.742
398.505
398.267
398.026
397.785
397.542
397.301
397.058
396.816
396.574
396.332
396.092
395.853
395.614
395.379
395.145
394.913
394.685
394.458
394.237
394.017
393.803
393.59
393.385
393.178
392.982
392.784
392.593
392.405
392.218
392.037
391.855
391.678
391.497
391.322
391.137
390.958
390.768
390.578
390.379
390.177
389.964
389.749
389.523
389.297
389.064
388.837
388.604
388.394
388.183
387.999
387.84
387.693
387.595
387.5
387.449
387.401
387.395
387.378
387.432
387.466
387.593
387.711
387.923
401.545
401.511
401.446
401.348
401.224
401.073
400.899
400.709
400.506
400.297
400.082
399.864
399.644
399.42
399.195
398.965
398.733
398.497
398.259
398.018
397.776
397.533
397.29
397.046
396.802
396.559
396.315
396.074
395.831
395.591
395.352
395.115
394.879
394.647
394.415
394.188
393.963
393.74
393.522
393.305
393.092
392.883
392.675
392.47
392.268
392.067
391.867
391.67
391.468
391.269
391.066
390.858
390.652
390.431
390.212
389.977
389.743
389.487
389.237
388.96
388.688
388.4
388.104
387.81
387.504
387.207
386.907
386.618
386.336
386.068
385.806
385.577
385.332
385.159
384.953
384.841
384.718
384.704
384.763
384.944
401.509
401.477
401.414
401.32
401.2
401.053
400.884
400.696
400.497
400.29
400.075
399.858
399.637
399.413
399.188
398.958
398.726
398.49
398.25
398.009
397.766
397.523
397.278
397.034
396.786
396.543
396.295
396.054
395.807
395.565
395.322
395.082
394.842
394.604
394.369
394.135
393.905
393.673
393.45
393.222
393.001
392.781
392.561
392.345
392.128
391.913
391.696
391.481
391.259
391.042
390.813
390.584
390.348
390.102
389.849
389.587
389.309
389.024
388.723
388.404
388.08
387.729
387.374
386.993
386.613
386.202
385.797
385.373
384.935
384.515
384.057
383.641
383.196
382.798
382.405
382.066
381.789
381.601
381.545
381.701
401.508
401.476
401.413
401.319
401.2
401.052
400.882
400.694
400.495
400.288
400.073
399.855
399.633
399.409
399.183
398.953
398.72
398.484
398.243
398.001
397.756
397.513
397.265
397.02
396.771
396.526
396.276
396.031
395.782
395.537
395.291
395.045
394.802
394.559
394.319
394.079
393.843
393.604
393.373
393.137
392.907
392.676
392.446
392.217
391.989
391.756
391.528
391.292
391.053
390.817
390.564
390.314
390.052
389.776
389.498
389.201
388.887
388.568
388.22
387.855
387.481
387.063
386.645
386.187
385.709
385.204
384.673
384.114
383.526
382.923
382.286
381.637
380.987
380.337
379.701
379.125
378.618
378.228
378
378.005
401.542
401.509
401.442
401.346
401.222
401.069
400.894
400.702
400.5
400.291
400.075
399.857
399.634
399.41
399.182
398.951
398.717
398.478
398.237
397.993
397.747
397.502
397.253
397.005
396.755
396.507
396.254
396.007
395.754
395.507
395.256
395.007
394.76
394.512
394.267
394.02
393.779
393.531
393.295
393.048
392.812
392.57
392.328
392.09
391.846
391.602
391.358
391.105
390.851
390.594
390.321
390.05
389.764
389.458
389.16
388.821
388.482
388.122
387.726
387.327
386.885
386.423
385.921
385.397
384.821
384.211
383.569
382.852
382.119
381.322
380.479
379.607
378.69
377.77
376.849
375.97
375.178
374.483
374.032
373.781
401.613
401.575
401.502
401.4
401.266
401.103
400.919
400.719
400.512
400.299
400.082
399.862
399.639
399.414
399.184
398.952
398.715
398.475
398.231
397.986
397.738
397.491
397.24
396.991
396.738
396.487
396.232
395.981
395.726
395.474
395.221
394.966
394.716
394.461
394.213
393.959
393.712
393.458
393.213
392.959
392.712
392.464
392.208
391.963
391.704
391.448
391.193
390.917
390.656
390.374
390.084
389.796
389.48
389.157
388.828
388.459
388.088
387.695
387.25
386.814
386.319
385.788
385.238
384.621
383.957
383.256
382.471
381.632
380.72
379.738
378.664
377.54
376.353
375.088
373.836
372.582
371.406
370.336
369.491
368.946
401.724
401.679
401.597
401.482
401.332
401.153
400.954
400.743
400.53
400.312
400.093
399.872
399.648
399.422
399.189
398.955
398.714
398.472
398.226
397.979
397.73
397.48
397.229
396.975
396.722
396.466
396.211
395.954
395.697
395.44
395.183
394.925
394.668
394.411
394.154
393.898
393.641
393.382
393.131
392.866
392.617
392.351
392.092
391.835
391.561
391.3
391.024
390.739
390.462
390.162
389.852
389.556
389.199
388.874
388.509
388.105
387.725
387.272
386.806
386.325
385.771
385.196
384.576
383.886
383.134
382.338
381.432
380.438
379.384
378.182
376.879
375.479
373.96
372.342
370.654
368.962
367.245
365.695
364.327
363.297
401.88
401.827
401.73
401.592
401.417
401.215
400.997
400.773
400.552
400.33
400.109
399.887
399.662
399.433
399.197
398.959
398.715
398.471
398.222
397.973
397.722
397.469
397.217
396.959
396.705
396.445
396.187
395.927
395.666
395.406
395.144
394.882
394.62
394.359
394.094
393.835
393.57
393.306
393.047
392.772
392.519
392.241
391.974
391.711
391.416
391.159
390.854
390.569
390.273
389.952
389.639
389.311
388.946
388.593
388.211
387.771
387.377
386.878
386.381
385.872
385.25
384.643
383.964
383.178
382.384
381.464
380.451
379.34
378.098
376.709
375.15
373.489
371.552
369.544
367.348
365.083
362.718
360.446
358.387
356.615
402.096
402.027
401.903
401.729
401.516
401.28
401.04
400.804
400.576
400.352
400.13
399.906
399.679
399.446
399.206
398.964
398.716
398.471
398.218
397.969
397.714
397.46
397.204
396.945
396.687
396.424
396.164
395.899
395.636
395.369
395.105
394.837
394.571
394.306
394.031
393.774
393.492
393.234
392.957
392.683
392.42
392.13
391.864
391.58
391.286
391.011
390.699
390.395
390.103
389.742
389.446
389.074
388.699
388.35
387.902
387.483
387.046
386.497
386.014
385.425
384.781
384.138
383.382
382.548
381.673
380.684
379.532
378.339
376.943
375.327
373.56
371.579
369.266
366.741
363.994
360.967
357.78
354.562
351.489
348.607
402.394
402.295
402.122
401.888
401.621
401.345
401.082
400.834
400.604
400.378
400.155
399.928
399.697
399.458
399.214
398.967
398.717
398.469
398.214
397.964
397.706
397.45
397.191
396.929
396.669
396.401
396.139
395.868
395.604
395.331
395.065
394.79
394.52
394.251
393.966
393.711
393.41
393.161
392.862
392.593
392.32
392.015
391.758
391.441
391.162
390.861
390.545
390.238
389.919
389.56
389.241
388.863
388.459
388.117
387.621
387.212
386.741
386.159
385.67
385.029
384.348
383.694
382.846
381.99
381.032
379.969
378.722
377.427
375.942
374.072
372.18
369.842
367.138
364.128
360.674
356.756
352.383
347.99
343.304
338.907
402.808
402.644
402.387
402.068
401.733
401.414
401.132
400.879
400.651
400.423
400.196
399.961
399.723
399.477
399.229
398.977
398.725
398.473
398.216
397.963
397.703
397.445
397.182
396.917
396.653
396.382
396.116
395.841
395.575
395.293
395.029
394.741
394.476
394.192
393.912
393.643
393.34
393.087
392.776
392.509
392.217
391.917
391.643
391.327
391.034
390.732
390.405
390.088
389.765
389.383
389.082
388.647
388.285
387.874
387.389
386.986
386.437
385.911
385.357
384.671
384.014
383.287
382.405
381.482
380.559
379.241
378.084
376.74
374.948
373.132
370.99
368.372
365.337
361.907
357.701
352.655
346.876
340.5
333.391
326.842
403.352
403.013
402.58
402.139
401.745
401.416
401.147
400.908
400.684
400.455
400.219
399.976
399.731
399.481
399.232
398.979
398.725
398.473
398.214
397.96
397.697
397.436
397.171
396.903
396.635
396.363
396.092
395.814
395.545
395.256
394.993
394.694
394.432
394.134
393.858
393.578
393.274
393.015
392.694
392.431
392.122
391.827
391.534
391.225
390.912
390.612
390.273
389.946
389.634
389.224
388.939
388.466
388.135
387.693
387.197
386.816
386.184
385.712
385.138
384.379
383.766
383.002
381.986
381.188
380.187
378.712
377.591
376.263
373.99
372.609
369.858
367.357
363.852
360.284
355.268
349.409
341.502
332.751
319.871
309.379
404.813
403.802
402.895
402.222
401.77
401.459
401.212
400.981
400.746
400.502
400.25
399.998
399.745
399.493
399.241
398.988
398.733
398.479
398.219
397.962
397.698
397.434
397.167
396.898
396.628
396.355
396.08
395.803
395.527
395.243
394.968
394.678
394.401
394.112
393.826
393.546
393.245
392.972
392.664
392.383
392.086
391.781
391.492
391.179
390.865
390.571
390.219
389.915
389.565
389.197
388.864
388.437
388.067
387.617
387.185
386.685
386.183
385.618
385.032
384.31
383.71
382.799
381.956
381.112
379.95
378.58
377.625
375.5
374.199
372.036
369.723
366.921
363.691
359.325
354.727
347.19
339.87
326.507
310.114
283.409
395.659
395.373
395.164
395.053
395.101
395.328
395.728
396.235
396.817
397.476
397.791
398.796
399.081
398.765
398.609
398.994
399.808
400.91
401.75
402.088
395.86
395.467
395.033
394.756
394.618
394.916
395.448
396.06
396.741
397.389
397.943
398.464
398.423
397.918
397.819
398.291
399.141
400.309
401.213
401.665
395.353
395.156
394.858
394.628
394.682
394.84
395.249
395.99
396.908
397.678
398.215
398.297
397.671
396.766
396.613
397.107
398.018
399.141
400.199
400.896
396.549
396.542
394.548
393.215
392.157
392.737
394.439
395.758
397.13
398.301
398.931
398.518
397.09
395.799
395.497
396.096
396.964
397.886
398.986
400.084
395.094
394.403
393.006
392.215
391.959
392.812
392.98
394.899
397.491
399.02
399.594
399.069
397.278
395.851
395.211
395.348
395.951
396.826
398.043
399.452
393.113
392.742
392.273
391.751
391.642
391.425
393.127
396.288
398.088
399.824
400.455
399.801
398.158
396.707
395.381
395.296
397.033
397.405
397.444
399.008
390.769
390.816
390.905
390.934
391.46
392.242
394.29
396.354
398.637
400.341
400.9
400.711
399.484
397.406
395.465
395.613
395.826
394.907
395.678
399.187
388.185
388.511
389.019
389.644
390.65
392.175
394.129
396.451
398.766
400.226
400.938
400.748
399.954
398.643
397.636
398.173
399.115
398.384
397.751
402.616
385.307
385.85
386.571
387.66
389.031
390.881
393.196
395.744
398.262
400.374
402.179
402.506
401.252
399.51
397.981
397.438
397.342
396.522
398.037
405.774
382.025
382.666
383.591
384.829
386.558
388.697
391.297
394.33
397.366
399.588
400.42
401.07
401.546
400.075
401.121
403.43
404.933
402.549
402.335
417.883
378.28
378.879
379.888
381.292
383.204
385.678
388.588
391.938
395.73
400.222
404.536
406.777
401.006
397.969
400.34
402.711
404.903
404.54
401.816
408.196
373.91
374.424
375.412
376.972
379.023
381.743
385.154
388.831
392.228
394.951
396.978
397.798
397.882
399.659
402.604
404.687
404.487
404.449
404.638
406.993
368.772
369.161
370.065
371.68
374.011
376.861
380.418
384.851
389.831
394.242
397.37
399.438
401.362
404.342
406.307
406.193
405.531
404.351
403.186
404.033
362.724
362.799
363.668
365.24
367.76
371.174
374.685
378.273
382.504
387.424
392.476
397.495
401.957
405.03
406.053
404.799
402.663
400.913
400.561
401.384
355.503
355.093
355.715
357.44
360.084
364.063
369.401
374.685
378.959
382.204
385.555
390.367
395.969
400.117
401.761
400.811
399.063
397.121
396.837
397.718
346.563
345.674
345.958
347.901
350.894
354.172
358.305
364.085
370.889
377.057
382.092
386.441
390.769
394.473
396.253
395.914
394.505
392.496
391.799
392.853
335.219
333.269
333.587
336.229
341.279
346.737
351.498
355.748
360.919
367.388
374.127
379.916
384.444
388.083
390.3
390.619
389.445
387.409
387.106
388.141
321.011
317.36
317.804
320.474
323.929
329.642
338.561
347.976
355.768
361.499
366.9
372.651
377.745
381.903
384.703
385.522
384.888
384.094
384.796
386.781
299.35
297.574
301.941
307.499
311.168
313.868
321.206
333.242
344.479
352.877
358.993
364.871
370.314
375.161
378.962
380.967
381.885
382.818
384.644
386.461
256.152
265.529
274.755
280.061
286.468
298.062
311.03
323.268
334.26
343.387
350.556
356.917
362.671
367.93
372.715
376.468
379.519
382.338
384.885
387.232
209.928
254.607
252.184
242.053
245.436
267.659
292.605
311.347
323.534
333.538
341.936
349.369
355.948
361.935
367.547
372.666
377.383
381.535
385.048
387.654
245.326
246.779
236.636
215.381
212.206
237.762
271.369
297.089
312.314
323.529
333.126
341.637
349.273
356.295
362.905
369.145
374.983
380.038
384.27
387.2
227.196
229.567
215.492
186.377
187.828
211.467
250.333
282.249
301.468
313.645
324.573
334.174
342.513
350.032
357.014
363.78
370.446
376.76
382.18
385.383
228.404
227.024
198.606
172.142
170.158
193.599
233.047
269.118
293.094
306.293
316.898
326.877
336.051
343.971
350.78
357.409
364.593
371.77
377.558
380.781
229.651
222.532
195.974
172.432
168.536
192.662
223.604
261.35
286.981
301.074
310.769
320.07
329.404
337.639
344.512
351.026
358.034
365.059
370.949
374.179
237.031
227.04
207.597
190.861
195.823
210.459
234.212
261.72
284.119
297.339
306.134
314.373
322.941
330.877
337.716
344.245
351.063
357.481
362.566
365.256
231.181
226.224
217.242
214.866
222.269
234.773
255.592
275.715
289.3
296.852
303.02
309.775
316.793
323.863
330.442
336.718
342.722
348.215
353.041
355.774
226.194
222.526
220.805
224.823
236.398
252.433
274.364
292.127
299.812
301.535
303.091
306.75
311.224
316.504
322.181
327.876
333.447
338.512
342.831
345.023
220.931
218.508
219.066
227.009
241.364
260.041
281.637
299.868
308.338
304.323
302.258
302.839
305.401
309.022
313.833
318.973
323.618
327.72
331.409
333.67
215.934
214.193
216.158
225.656
240.518
259.001
276.35
298.253
304.251
301.182
296.375
295.022
297.03
300.149
304.216
308.699
312.91
316.797
320.423
322.134
213.187
210.522
212.711
221.998
236.37
252.168
267.354
284.123
290.033
289.782
283.792
281.849
284.266
288.2
292.909
297.73
301.751
304.911
307.516
309.152
211.959
209.125
210.048
216.574
229.316
241.487
252.615
263.248
269.201
269.125
264.932
263.506
267.262
273.036
278.876
283.954
288.021
291.692
295.041
296.571
210.529
209.205
208.102
210.46
218.391
226.262
233.205
239.477
242.283
241.357
239.436
239.722
245.65
254.473
262.685
269.101
274.013
277.948
280.817
282.229
208.012
209.607
206.018
203.214
203.562
205.569
207.483
208.37
209.304
208.235
208.058
210.953
220.202
233.342
244.551
252.404
258.071
262.728
266.433
268.248
203.729
207.251
200.23
192.657
185.985
181.446
178.884
175.504
172.809
171.785
173.813
179.812
192.442
209.593
224.158
234.489
242.154
248.144
252.092
253.754
198.857
195.951
188.311
177.164
165.944
156.606
149.598
142.089
136.191
134.857
139.212
148.481
164.946
186.457
204.306
216.779
225.916
232.667
237.182
239.72
196.535
188.114
174.795
159.093
144.225
131.857
121.624
110.838
102.372
100.691
106.867
119.373
139.82
164.855
185.097
199.582
210.641
218.938
224.417
226.912
189.81
179.099
160.833
141.516
123.517
108.645
95.671
82.3478
73.2782
72.4376
79.9958
94.7941
118.649
146.836
169.516
185.826
197.958
206.564
212.056
215.155
175.694
163.123
144.06
124.59
106.023
89.5698
73.992
58.7199
50.4666
51.4616
60.4539
76.9022
103.376
133.515
156.877
173.998
187.113
196.63
203.487
206.531
159.135
147.905
128.956
109.706
91.6638
74.9619
58.1904
42.4406
35.0801
37.6467
48.1483
66.0434
93.7589
124.086
147.969
166.505
180.307
189.829
196.127
199.444
144.624
134.395
116.856
98.5697
81.4142
65.3572
48.4095
33.4708
27.5262
31.2085
43.4624
62.1006
89.6713
118.736
143.01
161.815
175.355
185.067
192.356
195.863
132.807
123.373
108.793
92.9454
77.5796
62.7118
46.5268
32.6856
28.1634
33.0285
45.8039
65.4055
91.948
119.382
142.775
160.628
174.203
184.229
190.691
193.79
125.655
118.103
105.331
92.2232
79.6598
67.178
52.2055
39.5956
36.1262
41.6513
55.0605
75.451
101.341
126.73
147.258
162.943
175.148
184.244
190.996
194.626
123.629
117.1
106.67
96.0993
86.4562
76.8078
64.358
53.6299
50.9424
56.8497
70.417
90.5569
114.676
136.89
154.17
168.002
179.113
187.624
193.923
197.091
125.771
121.087
113.618
105.92
99.1319
92.2276
82.871
74.0418
71.9786
77.9017
90.8014
109.216
130.08
148.777
163.634
175.482
184.634
191.842
197.396
200.488
132.128
128.885
123.344
118.954
115.563
111.896
105.771
99.5219
98.1795
103.456
114.503
129.803
146.436
161.152
173.022
182.646
190.54
197.062
202.8
205.686
141.519
139.282
136.238
134.318
133.724
133.182
130.328
126.768
126.38
130.669
139.037
150.439
162.756
173.826
183.013
190.911
197.774
203.467
207.483
209.558
152.761
151.823
150.809
150.953
152.406
154.227
154.131
152.582
152.728
155.954
161.857
169.679
178.287
186.042
192.739
198.871
203.979
208.304
212.896
215.536
165.109
164.721
164.981
166.638
169.646
173.096
174.978
174.912
175.153
177.103
180.689
185.653
191.422
196.76
201.929
207.007
211.665
215.746
218.404
219.787
177.465
177.854
178.98
181.282
184.853
188.944
191.745
192.51
192.656
193.508
195.378
198.51
202.44
206.429
210.809
214.863
217.969
220.685
223.531
225.517
189.167
189.783
191.321
193.934
197.628
201.76
204.804
205.78
205.731
205.967
206.603
208.573
211.292
214.291
217.765
221.226
224.541
227.453
229.629
230.889
199.78
200.551
202.138
204.574
207.884
211.6
214.491
215.614
215.469
215.347
215.33
216.744
218.745
221.322
224.681
227.957
230.79
233.27
234.883
235.68
209.095
209.886
211.326
213.396
216.095
219.11
221.56
222.625
222.556
222.646
222.634
223.894
225.647
227.941
230.686
233.444
236.081
238.133
240.655
242.638
217.065
217.687
218.873
220.523
222.629
224.93
226.908
227.859
227.969
228.141
228.429
229.828
231.439
233.555
236.237
239.105
242.422
245.634
246.772
246.923
223.835
224.341
225.193
226.348
227.839
229.567
231.178
232.094
232.401
232.742
233.499
234.982
236.778
239.099
241.803
244.559
247.055
248.984
251.71
254.2
229.565
229.786
230.25
230.937
231.797
232.991
234.283
235.358
236.191
236.827
237.975
239.64
241.553
243.734
246.083
248.673
252.022
255.8
257.964
259.202
234.569
234.514
234.454
234.596
234.807
235.455
236.659
238.098
239.27
240.292
241.937
243.725
245.898
248.362
251.017
253.662
256.487
259.714
262.632
263.514
239.17
238.705
238.03
237.43
237.209
237.489
238.655
240.418
242.108
243.663
245.629
247.75
250.326
252.883
255.406
257.785
259.887
261.682
265.613
269.428
243.712
242.842
241.489
240.178
239.224
239.031
240.191
242.565
244.746
246.796
249.112
251.388
254.081
256.678
259.256
261.436
263.771
266.479
267.813
267.817
248.496
247.253
245.31
243.449
241.92
241.368
242.43
244.932
247.492
250.036
252.452
254.862
257.811
260.638
263.483
266.016
267.553
265.721
261.344
265.814
253.891
252.279
249.75
247.242
245.255
244.46
245.478
248.121
250.761
253.315
255.795
258.312
261.232
264.182
266.884
268.797
270.362
269.882
260.179
267.455
260.134
258.219
255.196
252.115
249.432
248.127
249.099
251.675
254.282
256.754
258.999
261.376
264.17
267.034
269.829
272.17
273.981
276.965
272.316
269.627
267.183
265.139
261.923
258.673
255.712
253.81
253.938
255.855
257.976
259.954
261.849
264.04
266.646
269.999
273.779
277.374
280.528
282.415
281.134
276.836
275.042
272.866
269.496
265.966
262.724
260.47
259.934
260.809
261.844
262.889
264.148
266.123
269.012
272.857
277.409
281.871
285.595
288.152
285.288
283.174
283.579
281.441
278.064
274.24
270.341
267.467
266.133
265.868
265.592
265.461
265.9
267.388
270.246
274.848
280.286
285.696
290.225
292.49
288.114
286.259
292.306
290.355
287.218
283.442
278.994
274.888
272.192
270.497
268.753
267.066
266.297
267.225
270.013
274.815
281.006
287.769
293.443
294.506
287.73
286.905
300.941
299.114
296.067
292.226
287.445
282.313
278.123
274.742
271.115
267.71
265.717
265.334
267.05
271.546
277.96
284.975
289.408
290.973
285.674
285.684
309.158
307.569
304.717
300.772
295.567
289.421
283.488
278.075
272.619
267.229
262.989
260.562
260.556
263.422
268.627
275.415
279.227
280.707
280.568
280.916
316.582
315.195
312.524
308.574
302.713
295.172
287.414
280.373
272.941
265.107
258.31
252.803
249.407
250.015
253.996
259.5
264.559
266.987
270.373
271.678
322.975
321.801
319.324
315.323
308.956
300.326
290.72
281.396
271.825
261.636
251.489
241.898
235.105
232.873
234.507
239.086
245.231
249.541
254.476
257.299
328.151
327.231
325.131
321.333
314.786
305.034
293.169
281.689
269.929
256.923
243.227
229.63
218.037
211.691
210.733
214.128
220.382
227.65
233.466
237.742
332.058
331.277
329.377
325.497
318.565
308.169
295.279
281.915
268.035
252.232
234.474
215.262
198.175
187.34
182.074
183.244
191.026
200.306
208.245
213.689
334.87
334.26
332.623
328.818
321.846
311.055
296.861
281.742
265.663
246.99
224.83
200.22
177.251
159.682
149.872
149.772
156.544
168.842
179.86
186.849
336.76
336.323
335.005
331.612
324.68
313.249
298.185
281.335
263.575
241.923
215.271
185.173
156.509
134.005
118.967
114.406
122.428
138.798
153.174
162.208
337.92
337.55
336.393
333.047
326.542
315.171
299.878
281.498
261.77
238.193
207.952
173.138
139.639
111.606
92.2044
87.5755
97.7304
115.786
133.834
144.081
338.632
338.347
337.203
334.479
328.281
317.226
301.858
282.275
261.668
236.462
204.252
165.964
128.47
97.7201
76.8525
70.4094
79.6686
101.035
121.431
133.214
339.06
338.824
337.616
335.355
329.298
318.592
304.056
285.499
264.134
237.737
203.956
165.466
127.679
95.9923
73.9231
67.388
79.9825
101.046
122.308
135.021
339.3
339.169
337.706
336.026
330.228
320.873
306.908
289.113
268.19
243.003
210.694
173.219
136.459
105.84
86.1514
80.9602
93.231
116.921
138.51
150.764
339.569
339.394
338.025
336.345
331.163
323.227
309.988
293.901
274.269
251.469
223.396
190.294
156.23
127.84
109.912
106.078
119.335
142.232
162.805
173.65
339.863
339.672
338.288
336.432
332.133
325.497
313.688
299.55
281.989
262.468
239.641
212.132
183.552
159.685
146.027
145.249
157.349
176.031
194.166
204.227
340.276
339.969
338.71
336.695
333.32
327.195
317.52
305.587
290.499
273.704
255.496
234.757
212.934
195.005
185.126
186.142
197.272
214.743
228.505
237.265
340.778
340.383
339.239
337.061
333.847
328.593
321.436
310.859
298.511
284.439
269.851
254.428
239.608
227.342
221.134
223.451
234.05
247.568
259.835
266.562
341.37
340.811
339.883
337.575
334.487
330.136
324.252
315.486
305.456
293.934
282.12
270.807
260.342
253.186
249.961
253.538
263.418
275.216
285.587
293.345
341.974
341.323
340.339
337.85
335.047
331.288
326.364
319.469
311.407
302.177
292.828
283.768
276.182
271.416
270.101
273.851
282.715
292.736
300.308
302.438
342.587
341.871
340.453
338.359
335.857
332.579
328.293
322.946
316.444
308.946
301.405
293.712
287.425
283.515
282.655
285.722
292.61
300.81
305.755
311.735
343.016
342.088
340.584
338.964
336.822
333.735
330.074
325.95
320.511
314.494
307.853
301.382
295.401
291.194
289.418
290.578
294.361
300.366
306.306
307.083
342.854
341.876
340.399
339.54
337.701
335.304
332.475
328.74
324.286
319.178
313.153
306.879
301.095
295.69
291.748
290.042
290.254
291.287
291.679
296.597
342.249
340.979
340.45
339.862
338.62
336.822
334.466
331.692
327.816
323.208
317.89
311.671
305.05
298.37
292.315
286.495
281.643
278.211
275.042
270.067
341.143
340.304
340.795
340.583
339.826
338.618
337.157
334.619
331.65
327.514
322.227
316.088
308.854
300.522
291.508
282.11
271.162
259.157
244.561
229.905
341.198
340.507
341.781
341.674
341.332
340.956
339.829
338.167
335.44
331.722
326.855
320.16
312.329
302.703
291.172
277.315
259.925
239.786
213.017
151.14
342.595
342.851
343.311
343.145
343.152
343.315
342.762
341.892
339.818
336.576
331.718
325.128
316.283
305.576
291.868
275.059
250.975
217.717
183.977
51.4133
344.532
345.466
345.156
345.395
345.527
345.945
346.11
346.039
344.395
341.968
337.086
330.112
320.793
309.513
293.148
273.025
251.532
202.653
159.876
72.0063
346.347
346.959
346.519
346.762
347.716
348.38
349.457
349.719
350.228
346.871
343.076
336.373
325.817
312.382
300.433
270.912
253.687
207.555
155.025
104.899
348.163
348.79
348.748
349.754
350.657
350.388
354.4
351.504
358.312
350.446
352.043
338.302
337.191
311.445
307.034
274.711
250.88
217.687
166.126
133.158
349.533
349.092
348.865
349.608
353.668
350.573
358.378
351.058
366.521
347.275
364.125
334.961
341.403
313.736
302.955
280.303
248.929
228.353
190.019
156.912
351.946
351.933
352.392
351.38
356.167
351.773
361.655
348.196
368.449
343.95
357.202
334.007
330.349
317.845
299.57
287.133
258.423
241.026
210.534
174.309
353.152
353.544
353.705
352.797
357.611
353.709
360.291
349.627
349.327
343.085
340.057
334.097
326.675
323.891
304.794
296.368
273.021
251.559
223.07
186.759
354.047
351.411
351.951
352.801
356.595
360.507
358.775
354.347
344.365
347.474
340.868
343.813
335.84
334.349
316.125
304.767
283.389
259.02
231.051
196.682
357.627
353.209
350.893
354.851
356.432
370.825
350.044
366.399
352.812
369.251
351.805
361.991
345.282
340.372
323.988
309.628
289.078
263.699
236.557
204.403
361.577
357.519
356.474
360.771
357.004
374.992
358.395
388.284
365.135
387.657
356.445
370.556
347.929
339.585
325.785
311.087
291.508
266.382
239.887
209.055
-150.635
-86.7345
-159.311
-106.516
-116.665
-126.011
-172.227
-221.899
-270.861
-304.193
-320.087
-310.955
-281.689
-241.261
-191.622
-129.538
-60.7889
-12.1438
24.7126
61.5964
79.6295
92.7614
98.9958
98.8733
91.0693
76.4501
58.758
36.8051
6.22268
-36.8946
-90.9839
-152.095
-217.383
-283.55
-346.136
-400.498
-441.652
-464.215
-464.73
-446.586
-412.357
-364.411
-303.981
-238.521
-174.782
-118.412
-68.26
-30.3218
-3.58298
12.1781
18.0035
16.9455
10.0888
0.141457
-11.5126
-22.6853
-32.3987
-39.5373
-43.7738
-45.4562
-44.6381
-42.3022
-38.1835
-33.8877
-30.0973
-27.3656
-25.7867
-24.9098
-24.048
-21.2929
-17.4405
-13.5932
-10.915
-9.2008
-7.28483
-4.33223
-1.18446
1.45624
3.54669