/*--------------------------------*- C++ -*----------------------------------*\
| =========                 |                                                 |
| \\      /  F ield         | OpenFOAM: The Open Source CFD Toolbox           |
|  \\    /   O peration     | Version:  2306                                  |
|   \\  /    A nd           | Website:  www.openfoam.com                      |
|    \\/     M anipulation  |                                                 |
\*---------------------------------------------------------------------------*/
FoamFile
{
    version     2.0;
    format      ascii;
    arch        "LSB;label=32;scalar=64";
    class       surfaceScalarField;
    location    "0.3";
    object      phi;
}
// * * * * * * * * * * * * * * * * * * * * * * * * * * * * * * * * * * * * * //

dimensions      [0 3 -1 0 0 0 0];

oriented        oriented;

internalField   nonuniform List<scalar> 
8520
(
0.00992783
7.21714e-05
0.00978963
0.000138197
0.00962949
0.000160141
0.00946827
0.000161219
0.00930944
0.000158831
0.00914917
0.000160271
0.00898637
0.000162802
0.00882096
0.000165412
0.00865369
0.000167271
0.00848562
0.000168071
0.00831789
0.000167722
0.00815105
0.000166841
0.00798557
0.000165479
0.00782129
0.000164281
0.00765853
0.000162764
0.00749705
0.000161478
0.0073372
0.000159849
0.00717883
0.000158375
0.00702223
0.000156598
0.00686733
0.000154896
0.00671436
0.000152973
0.0065633
0.000151061
0.00641425
0.000149045
0.00626728
0.000146974
0.00612241
0.000144869
0.00597971
0.000142701
0.00583921
0.000140503
0.00570087
0.000138332
0.00556484
0.000136031
0.00543092
0.000133928
0.00529941
0.000131509
0.00516982
0.000129586
0.00504265
0.000127175
0.00491713
0.000125515
0.00479388
0.000123249
0.00467203
0.000121856
0.00455205
0.000119972
0.00443318
0.000118876
0.00431559
0.000117583
0.00419862
0.000116972
0.00408221
0.00011641
0.00396576
0.000116451
0.00384903
0.000116735
0.00373132
0.00011771
0.00361234
0.000118976
0.00349107
0.000121274
0.00336738
0.00012369
0.00323975
0.000127628
0.00310824
0.000131506
0.00297097
0.000137273
0.00282796
0.000143014
0.00267719
0.00015077
0.00251851
0.000158677
0.00234994
0.000168565
0.00217118
0.000178763
0.00198043
0.000190755
0.0017774
0.000203024
0.00156067
0.000216734
0.00133044
0.000230228
0.00108591
0.000244529
0.000828659
0.000257251
0.000559489
0.00026917
0.000284754
0.000274736
1.61711e-05
0.000268582
-0.000229101
0.000245272
-0.00044064
0.00021154
-0.000593087
0.000152447
-0.000671813
7.87259e-05
-0.000654706
-1.71071e-05
-0.000536589
-0.000118118
-0.000309194
-0.000227395
-2.79954e-05
-0.000281198
0.000211368
-0.000239363
0.000328422
-0.000117054
7.07531e-05
0.000257669
-0.000405736
0.000476489
-0.000283823
-0.000121913
0.000110896
-0.000394719
0.000164776
-5.38795e-05
0.000206477
-4.17013e-05
0.0100357
3.64851e-05
0.0100799
9.40202e-05
0.0101108
0.000129226
0.0101273
0.000144736
0.0101357
0.000150361
0.0101431
0.000152867
0.0101493
0.000156635
0.0101532
0.000161503
0.0101536
0.000166872
0.0101502
0.000171463
0.010143
0.000174952
0.0101323
0.000177497
0.0101188
0.000178969
0.0101027
0.000180438
0.0100844
0.000181064
0.0100636
0.000182228
0.0100409
0.000182554
0.0100158
0.000183473
0.00998887
0.000183561
0.00995966
0.0001841
0.00992865
0.000183984
0.00989563
0.000184083
0.00986079
0.000183889
0.00982422
0.000183542
0.00978575
0.000183334
0.00974582
0.000182631
0.00970392
0.000182403
0.00966074
0.000181517
0.00961557
0.000181199
0.00956917
0.000180324
0.00952082
0.000179866
0.00947112
0.000179282
0.0094196
0.000178697
0.00936653
0.000178583
0.00931165
0.000178132
0.00925506
0.000178441
0.00919642
0.000178612
0.00913604
0.000179261
0.00907314
0.000180478
0.00900836
0.000181752
0.00894034
0.000184436
0.00887034
0.000186447
0.00879622
0.000190851
0.00871986
0.000194073
0.00863841
0.000200422
0.00855395
0.00020574
0.00846362
0.000214023
0.00836884
0.000222409
0.00826747
0.000232867
0.00815972
0.000245025
0.00804449
0.000258245
0.00792053
0.000274732
0.00778789
0.000291319
0.00764383
0.00031262
0.00748943
0.000333166
0.00732087
0.000359311
0.00713967
0.000384232
0.00694179
0.000414611
0.00672866
0.000443353
0.00649705
0.000476141
0.00624825
0.000506054
0.00598093
0.000536494
0.00569489
0.000560775
0.00538602
0.000577445
0.00505823
0.000573068
0.00470197
0.000567802
0.00430457
0.000549848
0.00385613
0.000527165
0.00333671
0.00050231
0.00272226
0.000496332
0.00196726
0.000527604
0.00109858
0.000587485
0.000248896
0.000610319
-0.00034112
0.000472962
-0.000506269
0.000422817
-0.000322331
0.000292552
-0.0003062
-0.000138045
-0.000354178
-0.000346741
-0.000275379
-0.000132679
0.000250882
-0.000319783
0.0100142
2.23045e-05
0.0100441
6.41206e-05
0.0100778
9.55462e-05
0.0101074
0.000115075
0.0101313
0.000126494
0.0101523
0.000131889
0.0101729
0.000135992
0.0101951
0.000139356
0.0102178
0.000144134
0.0102408
0.000148409
0.0102629
0.000152854
0.0102843
0.000156169
0.0103043
0.000158937
0.0103237
0.000161088
0.0103421
0.000162579
0.0103601
0.000164248
0.0103774
0.000165257
0.0103941
0.000166764
0.0104101
0.000167626
0.0104253
0.000168846
0.0104396
0.000169693
0.0104532
0.000170483
0.0104656
0.000171458
0.0104774
0.000171734
0.0104879
0.000172919
0.0104977
0.000172781
0.010506
0.000174148
0.0105136
0.000173844
0.0105196
0.000175204
0.0105248
0.00017515
0.0105285
0.000176202
0.0105308
0.000176982
0.010532
0.000177438
0.0105311
0.000179479
0.0105297
0.00017952
0.0105255
0.000182739
0.0105209
0.000183121
0.0105131
0.000187117
0.0105048
0.000188757
0.0104932
0.000193368
0.0104806
0.00019698
0.0104649
0.000202219
0.0104474
0.000208362
0.0104268
0.000214666
0.0104036
0.000223629
0.0103773
0.000232015
0.0103475
0.000243828
0.0103145
0.000255397
0.0102768
0.000270564
0.0102359
0.000285889
0.0101887
0.000305474
0.0101383
0.000325093
0.0100798
0.000349816
0.0100176
0.000374816
0.00994599
0.000404822
0.00986911
0.000436195
0.00978187
0.000471469
0.00968729
0.000509192
0.00958141
0.00054923
0.00946591
0.000591642
0.00933771
0.000634257
0.0091967
0.000677505
0.00904039
0.000717079
0.00886343
0.000754412
0.0086553
0.000781195
0.00841179
0.000811309
0.0081277
0.000833942
0.00779126
0.000863607
0.00740317
0.000890401
0.00695984
0.000939656
0.00648477
0.00100267
0.00599106
0.0010812
0.00544719
0.00115418
0.00472892
0.00119123
0.00395843
0.00119331
0.00309063
0.00116035
0.00190642
0.00104616
0.000578298
0.000981383
-0.000308612
0.000754231
0.000548444
-0.000606173
0.010007
1.53159e-05
0.0100268
4.43563e-05
0.0100519
7.0392e-05
0.010077
8.99918e-05
0.0101003
0.000103228
0.0101222
0.000109897
0.010143
0.000115232
0.0101642
0.000118139
0.0101862
0.000122135
0.0102095
0.000125127
0.010233
0.000129331
0.0102569
0.00013227
0.0102804
0.000135484
0.0103038
0.000137672
0.0103269
0.000139464
0.0103499
0.000141228
0.010373
0.000142144
0.0103959
0.000143908
0.0104191
0.000144457
0.0104417
0.000146183
0.0104647
0.000146712
0.010487
0.000148185
0.0105095
0.000148933
0.0105313
0.000149938
0.0105532
0.000151072
0.0105743
0.000151617
0.0105953
0.000153205
0.0106157
0.000153445
0.0106355
0.000155389
0.0106549
0.000155721
0.0106734
0.000157697
0.0106916
0.000158821
0.0107087
0.00016033
0.0107252
0.000162978
0.0107409
0.000163868
0.0107553
0.000168295
0.0107694
0.000169049
0.0107814
0.000175049
0.0107936
0.000176554
0.0108032
0.000183809
0.0108131
0.000187087
0.0108202
0.000195115
0.010827
0.000201526
0.0108318
0.000209943
0.0108349
0.000220494
0.0108369
0.000229963
0.0108362
0.000244555
0.0108348
0.000256798
0.0108303
0.000275126
0.0108247
0.000291484
0.0108158
0.000314303
0.0108058
0.000335128
0.0107918
0.000363865
0.0107771
0.000389454
0.010757
0.000424902
0.0107369
0.000456317
0.0107106
0.000497759
0.0106831
0.000536665
0.0106502
0.000582132
0.0106131
0.000628797
0.0105704
0.000676907
0.0105199
0.000728034
0.010459
0.000778007
0.0103833
0.000830144
0.0102843
0.000880187
0.0101603
0.000935238
0.01001
0.000984322
0.00982262
0.00105094
0.00960624
0.00110678
0.00934868
0.00119722
0.00907757
0.00127378
0.00876439
0.00139438
0.00841654
0.00150203
0.00797315
0.00163462
0.00746621
0.00170024
0.00685701
0.00176956
0.00614817
0.001755
0.00536948
0.00176007
0.00432001
0.0018037
0.00176787
0.00310058
0.0100043
1.10017e-05
0.0100166
3.21137e-05
0.010035
5.19523e-05
0.0100562
6.88009e-05
0.010078
8.14407e-05
0.0100988
8.9103e-05
0.0101192
9.47673e-05
0.0101396
9.78182e-05
0.0101607
0.000101024
0.0101824
0.000103379
0.0102051
0.000106662
0.010228
0.000109336
0.0102515
0.000112025
0.0102746
0.000114498
0.0102982
0.000115893
0.0103212
0.000118246
0.0103449
0.000118404
0.0103678
0.000120999
0.0103919
0.000120424
0.0104148
0.00012327
0.0104389
0.000122565
0.0104618
0.000125312
0.0104858
0.000124975
0.0105086
0.000127117
0.010532
0.00012763
0.0105548
0.000128827
0.0105774
0.000130591
0.0106002
0.000130664
0.0106217
0.00013388
0.0106444
0.000133025
0.0106647
0.000137471
0.010687
0.000136448
0.010706
0.000141377
0.0107276
0.000141382
0.0107454
0.000146049
0.0107657
0.000147959
0.0107825
0.000152257
0.0108012
0.000156361
0.010817
0.00016074
0.0108337
0.000167113
0.0108486
0.000172205
0.010863
0.000180715
0.0108768
0.000187721
0.010889
0.000197781
0.0109012
0.000208297
0.0109115
0.000219638
0.0109216
0.000234483
0.0109302
0.000248122
0.0109382
0.000267182
0.010945
0.000284679
0.0109512
0.000308056
0.0109558
0.000330553
0.0109609
0.000358801
0.0109632
0.000387117
0.0109671
0.00042104
0.0109681
0.000455293
0.0109698
0.000496088
0.0109705
0.000535959
0.0109691
0.000583477
0.0109679
0.000630071
0.0109627
0.000682061
0.0109542
0.00073658
0.0109394
0.000792725
0.010916
0.000853567
0.0108797
0.000916455
0.0108328
0.000982156
0.0107626
0.00105454
0.0106815
0.00113201
0.0105697
0.00121859
0.0104471
0.00131988
0.0102945
0.00142636
0.0101223
0.00156657
0.00992901
0.00169534
0.00970368
0.00185995
0.00943369
0.00197023
0.00907914
0.00212411
0.00864849
0.00218565
0.00806133
0.00234724
0.0074472
0.00241783
0.00257824
0.00663683
0.010003
7.95287e-06
0.0100118
2.34062e-05
0.0100256
3.81352e-05
0.010043
5.13851e-05
0.0100625
6.1968e-05
0.0100823
6.92776e-05
0.0101024
7.46169e-05
0.0101224
7.78968e-05
0.0101428
8.05959e-05
0.0101636
8.25856e-05
0.0101854
8.4825e-05
0.0102077
8.7076e-05
0.0102304
8.92719e-05
0.0102534
9.14826e-05
0.0102765
9.28774e-05
0.0102997
9.4992e-05
0.0103228
9.531e-05
0.0103462
9.76473e-05
0.0103695
9.71281e-05
0.0103929
9.98527e-05
0.0104163
9.91183e-05
0.0104397
0.00010192
0.0104631
0.000101543
0.0104864
0.00010386
0.0105096
0.000104397
0.0105326
0.000105817
0.0105555
0.000107721
0.0105782
0.00010796
0.0106005
0.000111598
0.0106229
0.000110629
0.0106443
0.000116057
0.0106664
0.00011437
0.0106867
0.000121033
0.0107083
0.00011983
0.0107276
0.000126733
0.0107482
0.000127348
0.0107667
0.000133753
0.0107859
0.000137167
0.0108038
0.000142801
0.0108211
0.000149815
0.0108388
0.000154514
0.0108538
0.000165801
0.0108714
0.000170063
0.0108838
0.000185347
0.0109012
0.00019096
0.0109117
0.00020913
0.0109281
0.000218045
0.0109373
0.000238951
0.0109527
0.000251792
0.0109609
0.0002765
0.0109752
0.000293748
0.0109832
0.000322499
0.010996
0.000346055
0.011005
0.000378058
0.0110163
0.000409733
0.0110266
0.000445031
0.0110372
0.000485525
0.0110488
0.000524324
0.0110577
0.000574566
0.0110709
0.000616884
0.0110759
0.000677051
0.0110875
0.000724959
0.0110861
0.000794195
0.0110911
0.00084854
0.0110777
0.000929831
0.0110708
0.000989075
0.0110372
0.00108813
0.011011
0.00115822
0.0109534
0.00127614
0.0109008
0.00137256
0.0108202
0.0015069
0.0107402
0.00164653
0.0106452
0.00179034
0.0105314
0.00197383
0.0103949
0.00210668
0.0101922
0.00232678
0.00994993
0.00242797
0.00960724
0.00268993
0.0092861
0.00273897
0.00301685
0.00884749
0.0100025
5.41277e-06
0.0100092
1.67516e-05
0.0100205
2.68155e-05
0.0100352
3.67341e-05
0.0100525
4.46494e-05
0.0100711
5.06811e-05
0.0100904
5.53025e-05
0.0101103
5.80375e-05
0.0101301
6.07397e-05
0.0101508
6.18507e-05
0.0101717
6.40091e-05
0.0101938
6.49228e-05
0.0102156
6.75347e-05
0.0102387
6.82958e-05
0.0102609
7.07557e-05
0.0102846
7.12224e-05
0.0103069
7.30494e-05
0.0103309
7.36627e-05
0.0103534
7.46289e-05
0.0103773
7.5936e-05
0.0104002
7.62569e-05
0.0104238
7.8307e-05
0.010447
7.82848e-05
0.0104701
8.0777e-05
0.0104937
8.07933e-05
0.0105161
8.34594e-05
0.0105399
8.38519e-05
0.0105615
8.64113e-05
0.0105854
8.77102e-05
0.0106062
8.97753e-05
0.0106297
9.25881e-05
0.0106501
9.39826e-05
0.0106727
9.84336e-05
0.0106927
9.98089e-05
0.0107142
0.000105258
0.0107338
0.000107725
0.010754
0.000113582
0.0107732
0.000117931
0.0107918
0.000124168
0.0108107
0.000130957
0.0108278
0.000137366
0.0108459
0.000147737
0.0108622
0.000153806
0.0108787
0.000168789
0.0108947
0.000174971
0.0109096
0.000194255
0.0109253
0.000202376
0.0109391
0.00022514
0.0109541
0.000236798
0.0109674
0.000263133
0.010982
0.000279227
0.0109951
0.000309314
0.0110095
0.000331649
0.0110234
0.000364238
0.0110373
0.000395788
0.0110529
0.00042939
0.0110662
0.000472313
0.0110839
0.000506548
0.0110958
0.000562676
0.011116
0.000596728
0.0111239
0.00066913
0.0111459
0.000702954
0.0111489
0.000791179
0.0111668
0.00083069
0.0111663
0.000930316
0.0111718
0.000983551
0.0111643
0.0010956
0.0111545
0.00116811
0.0111343
0.00129629
0.0111084
0.00139841
0.0110744
0.00154091
0.0110345
0.00168643
0.0109906
0.00183433
0.0109284
0.00203599
0.0108569
0.00217813
0.0107497
0.00243407
0.0106164
0.0025612
0.0104645
0.00284182
0.0102446
0.00295889
0.00320621
0.0100552
0.0100022
3.24102e-06
0.0100078
1.11242e-05
0.0100176
1.69701e-05
0.0100305
2.39085e-05
0.0100462
2.89253e-05
0.0100636
3.32359e-05
0.0100822
3.67862e-05
0.0101018
3.83953e-05
0.0101213
4.12053e-05
0.0101421
4.1066e-05
0.0101624
4.37049e-05
0.0101843
4.30388e-05
0.0102056
4.62498e-05
0.0102285
4.53904e-05
0.0102504
4.88077e-05
0.010274
4.76946e-05
0.0102963
5.06828e-05
0.0103201
4.99456e-05
0.0103428
5.18531e-05
0.0103663
5.24562e-05
0.0103896
5.29316e-05
0.0104126
5.53121e-05
0.0104366
5.43652e-05
0.0104589
5.84232e-05
0.0104833
5.63687e-05
0.0105049
6.18764e-05
0.0105298
5.89974e-05
0.0105505
6.57236e-05
0.0105756
6.25907e-05
0.0105954
6.99044e-05
0.0106204
6.76702e-05
0.0106398
7.4535e-05
0.0106638
7.44365e-05
0.0106833
8.03098e-05
0.0107058
8.27488e-05
0.0107256
8.79507e-05
0.0107463
9.28449e-05
0.0107664
9.78301e-05
0.0107852
0.000105398
0.0108057
0.000110469
0.0108224
0.000120614
0.0108432
0.000127002
0.0108582
0.000138743
0.0108788
0.000148214
0.0108928
0.000161012
0.0109128
0.000174235
0.0109263
0.000188865
0.0109454
0.000206076
0.0109594
0.00022279
0.010977
0.000245546
0.0109925
0.000263715
0.0110085
0.000293296
0.011026
0.00031417
0.0110411
0.000349121
0.0110603
0.000376524
0.0110756
0.000414134
0.0110962
0.000451763
0.0111119
0.000490794
0.0111339
0.000540655
0.0111486
0.000582011
0.0111728
0.000644974
0.0111853
0.000690445
0.0112092
0.000767325
0.0112197
0.000820141
0.0112393
0.000910757
0.011245
0.000977836
0.0112584
0.00108217
0.0112558
0.00117075
0.0112603
0.0012918
0.0112487
0.00140996
0.0112421
0.00154757
0.0112226
0.00170591
0.0112003
0.00185657
0.011172
0.00206431
0.0111228
0.00222735
0.0110812
0.0024757
0.0109861
0.00265627
0.0109257
0.00290226
0.0107711
0.00311347
0.00332762
0.0106497
0.0100018
1.40441e-06
0.0100071
5.8223e-06
0.010016
8.0985e-06
0.0100277
1.21722e-05
0.0100425
1.42206e-05
0.010059
1.66817e-05
0.0100771
1.87305e-05
0.0100963
1.91733e-05
0.0101158
2.16815e-05
0.0101364
2.04489e-05
0.0101567
2.33986e-05
0.0101783
2.15045e-05
0.0101995
2.49785e-05
0.010222
2.2974e-05
0.0102441
2.66153e-05
0.0102672
2.46656e-05
0.01029
2.78847e-05
0.0103133
2.66464e-05
0.0103365
2.86512e-05
0.0103596
2.9296e-05
0.0103833
2.92518e-05
0.0104061
3.2559e-05
0.0104303
3.01414e-05
0.0104525
3.61872e-05
0.0104771
3.17646e-05
0.0104989
4.01048e-05
0.0105236
3.42812e-05
0.010545
4.43575e-05
0.0105696
3.80127e-05
0.0105906
4.88905e-05
0.0106147
4.35232e-05
0.0106355
5.37313e-05
0.0106588
5.11214e-05
0.0106796
5.95285e-05
0.0107018
6.05334e-05
0.0107226
6.71965e-05
0.0107437
7.17831e-05
0.0107643
7.71918e-05
0.0107841
8.55819e-05
0.0108048
8.97898e-05
0.0108231
0.00010226
0.010844
0.000106178
0.0108611
0.000121625
0.0108817
0.000127632
0.0108982
0.000144437
0.0109183
0.000154182
0.0109345
0.000172634
0.0109546
0.000186016
0.0109704
0.000206958
0.0109907
0.00022531
0.0110071
0.00024722
0.0110268
0.000273672
0.0110453
0.000295612
0.0110643
0.000330187
0.0110852
0.000355626
0.0111038
0.000395542
0.0111277
0.000427815
0.0111453
0.000473212
0.0111724
0.00051357
0.0111903
0.000564086
0.0112174
0.000617833
0.0112381
0.000669786
0.011263
0.000742456
0.0112847
0.000798359
0.0113071
0.000888433
0.0113266
0.000958283
0.0113457
0.00106308
0.0113602
0.00115622
0.011374
0.00127805
0.0113832
0.00140074
0.0113868
0.00154398
0.011392
0.00170068
0.0113757
0.00187288
0.0113792
0.00206085
0.0113354
0.00227117
0.0113292
0.00248184
0.0112595
0.00272601
0.0112121
0.00294964
0.0111146
0.00321098
0.0034497
0.0109925
0.0100015
-1.33814e-07
0.0100069
4.96506e-07
0.0100152
-1.99162e-07
0.0100265
8.05407e-07
0.0100407
6.50802e-08
0.0100568
5.95094e-07
0.0100747
8.33195e-07
0.0100935
3.21019e-07
0.0101132
1.98363e-06
0.0101336
1.04143e-07
0.0101541
2.86301e-06
0.0101753
2.67139e-07
0.0101968
3.54462e-06
0.0102188
8.97276e-07
0.0102413
4.14509e-06
0.010264
1.97228e-06
0.0102872
4.69768e-06
0.0103102
3.60482e-06
0.0103337
5.14701e-06
0.0103569
6.13363e-06
0.0103806
5.57832e-06
0.0104037
9.3909e-06
0.0104275
6.34985e-06
0.0104507
1.30581e-05
0.0104744
7.99926e-06
0.0104976
1.69859e-05
0.0105211
1.07268e-05
0.0105441
2.13148e-05
0.0105675
1.4708e-05
0.0105902
2.61293e-05
0.0106133
2.04696e-05
0.0106356
3.13692e-05
0.0106582
2.85172e-05
0.0106804
3.74037e-05
0.0107022
3.87111e-05
0.0107242
4.5146e-05
0.0107451
5.09141e-05
0.010767
5.52591e-05
0.010787
6.55868e-05
0.0108087
6.8069e-05
0.010828
8.30328e-05
0.0108495
8.46786e-05
0.010868
0.000103067
0.0108894
0.000106244
0.0109074
0.0001265
0.010929
0.000132525
0.0109461
0.000155573
0.0109689
0.000163158
0.0109847
0.000191232
0.0110094
0.000200544
0.0110245
0.000232139
0.0110503
0.000247902
0.011067
0.00027893
0.0110926
0.000304521
0.0111114
0.000336863
0.011139
0.000367962
0.0111575
0.000409275
0.011189
0.000441764
0.0112083
0.000494228
0.0112405
0.000531876
0.0112644
0.00059397
0.0112953
0.000638892
0.0113224
0.000715333
0.0113534
0.000767325
0.0113816
0.000860214
0.0114114
0.000928548
0.0114405
0.00103397
0.011467
0.00112969
0.0114943
0.00125075
0.0115187
0.00137636
0.0115366
0.00152611
0.0115584
0.00167887
0.0115627
0.0018686
0.0115726
0.00205093
0.0115627
0.00228099
0.0115481
0.00249646
0.0115202
0.00275394
0.0114577
0.00301212
0.0113906
0.00327805
0.00356758
0.0112728
0.0100014
-1.4885e-06
0.010007
-5.10223e-06
0.010015
-8.24159e-06
0.0100266
-1.07708e-05
0.0100406
-1.39211e-05
0.0100567
-1.55765e-05
0.0100746
-1.70683e-05
0.0100934
-1.8453e-05
0.0101133
-1.79024e-05
0.0101335
-2.00662e-05
0.0101543
-1.79258e-05
0.0101753
-2.078e-05
0.010197
-1.81693e-05
0.0102189
-2.0999e-05
0.0102417
-1.86545e-05
0.0102642
-2.05224e-05
0.0102878
-1.88999e-05
0.0103106
-1.92094e-05
0.0103345
-1.87231e-05
0.0103576
-1.70138e-05
0.0103814
-1.82035e-05
0.0104049
-1.41343e-05
0.0104285
-1.72341e-05
0.0104523
-1.07144e-05
0.0104757
-1.54529e-05
0.0104996
-6.84544e-06
0.0105229
-1.25896e-05
0.0105467
-2.46704e-06
0.0105697
-8.35702e-06
0.0105934
2.46439e-06
0.0106161
-2.25218e-06
0.0106396
7.90787e-06
0.0106618
6.27728e-06
0.0106851
1.41142e-05
0.0107068
1.70787e-05
0.0107299
2.20011e-05
0.0107509
2.99409e-05
0.0107739
3.22494e-05
0.0107941
4.53987e-05
0.0108172
4.49298e-05
0.0108364
6.37957e-05
0.0108597
6.13799e-05
0.0108786
8.41783e-05
0.0109013
8.35968e-05
0.0109211
0.000106694
0.0109424
0.000111213
0.0109635
0.000134518
0.0109846
0.00014203
0.0110056
0.000170184
0.0110284
0.000177789
0.011049
0.00021153
0.0110737
0.00022323
0.0110951
0.000257458
0.0111209
0.000278765
0.0111449
0.000312841
0.0111712
0.000341639
0.0111988
0.000381717
0.0112259
0.000414642
0.0112574
0.000462758
0.0112854
0.000503876
0.011322
0.000557378
0.0113497
0.000611192
0.011392
0.000673049
0.0114203
0.000739013
0.0114656
0.00081491
0.011497
0.000897113
0.0115425
0.000988531
0.011577
0.00109515
0.0116221
0.00120565
0.0116544
0.00134404
0.0117008
0.00147975
0.0117246
0.00165505
0.011764
0.00182916
0.0117767
0.00203826
0.0117981
0.0022596
0.0117888
0.00250575
0.0117762
0.00276651
0.0117314
0.00305694
0.0116608
0.00334864
0.00366964
0.0115588
0.0100015
-2.98876e-06
0.0100073
-1.09438e-05
0.0100157
-1.66004e-05
0.0100279
-2.30117e-05
0.0100423
-2.82773e-05
0.010059
-3.23006e-05
0.0100771
-3.51219e-05
0.0100961
-3.74617e-05
0.0101161
-3.78993e-05
0.0101362
-4.02169e-05
0.0101572
-3.88612e-05
0.0101783
-4.19014e-05
0.0102001
-4.00052e-05
0.0102223
-4.31796e-05
0.0102451
-4.14573e-05
0.0102679
-4.33503e-05
0.0102915
-4.24972e-05
0.0103145
-4.21686e-05
0.0103386
-4.28392e-05
0.0103617
-4.00728e-05
0.0103859
-4.24739e-05
0.0104093
-3.75221e-05
0.0104334
-4.12596e-05
0.0104573
-3.46647e-05
0.0104808
-3.89153e-05
0.0105054
-3.15048e-05
0.0105281
-3.52624e-05
0.0105535
-2.78338e-05
0.0105753
-3.0146e-05
0.0106012
-2.34428e-05
0.0106221
-2.31984e-05
0.0106482
-1.82353e-05
0.0106686
-1.41205e-05
0.0106945
-1.177e-05
0.0107148
-3.15838e-06
0.01074
-3.1842e-06
0.0107605
9.36092e-06
0.0107845
8.25341e-06
0.0108057
2.41922e-05
0.0108288
2.18653e-05
0.01085
4.25723e-05
0.010873
3.83657e-05
0.0108939
6.33292e-05
0.0109168
6.0643e-05
0.0109384
8.51307e-05
0.0109603
8.93461e-05
0.0109836
0.000111162
0.0110051
0.000120603
0.0110287
0.000146553
0.0110526
0.000153913
0.0110753
0.000188798
0.0111011
0.00019745
0.0111271
0.000231445
0.0111506
0.000255247
0.0111832
0.000280229
0.011206
0.000318865
0.0112415
0.000346211
0.011269
0.000387088
0.011305
0.000426777
0.011338
0.000470899
0.0113765
0.000518904
0.0114141
0.000573524
0.0114557
0.000631537
0.0114992
0.000695471
0.011544
0.000770114
0.011592
0.000849142
0.0116433
0.000937211
0.011694
0.00104444
0.0117486
0.00115101
0.0118049
0.00128776
0.011858
0.00142667
0.0119143
0.00159878
0.0119619
0.00178156
0.0120105
0.00198967
0.0120366
0.0022335
0.0120623
0.00248004
0.0120571
0.00277168
0.0120315
0.00308254
0.0119719
0.00340828
0.00377153
0.01187
0.010002
-4.96454e-06
0.0100079
-1.68889e-05
0.0100175
-2.61461e-05
0.0100308
-3.63206e-05
0.0100463
-4.38025e-05
0.0100638
-4.97606e-05
0.0100824
-5.38026e-05
0.0101016
-5.66664e-05
0.010122
-5.82251e-05
0.010142
-6.022e-05
0.0101634
-6.02417e-05
0.0101844
-6.29733e-05
0.0102068
-6.23547e-05
0.0102291
-6.55481e-05
0.0102521
-6.44487e-05
0.0102753
-6.65388e-05
0.0102988
-6.59604e-05
0.0103222
-6.56269e-05
0.0103462
-6.67428e-05
0.0103697
-6.3647e-05
0.0103939
-6.66178e-05
0.0104178
-6.14614e-05
0.0104417
-6.5151e-05
0.0104663
-5.93071e-05
0.0104896
-6.21569e-05
0.010515
-5.69693e-05
0.0105375
-5.77464e-05
0.0105636
-5.39473e-05
0.0105855
-5.19671e-05
0.0106119
-4.98846e-05
0.0106333
-4.456e-05
0.0106596
-4.45815e-05
0.010681
-3.54638e-05
0.0107065
-3.72633e-05
0.0107287
-2.54248e-05
0.0107522
-2.66576e-05
0.0107764
-1.48017e-05
0.0107973
-1.26752e-05
0.0108234
-1.93652e-06
0.0108429
2.39906e-06
0.010869
1.64999e-05
0.0108896
1.77102e-05
0.0109137
3.92432e-05
0.0109363
3.79988e-05
0.0109596
6.18707e-05
0.0109822
6.67169e-05
0.0110079
8.55045e-05
0.0110284
0.000100114
0.0110573
0.000117655
0.0110778
0.000133343
0.011107
0.000159598
0.0111315
0.000172984
0.01116
0.000202954
0.0111878
0.000227469
0.0112191
0.000248921
0.0112485
0.000289411
0.0112828
0.000311961
0.011318
0.000351916
0.0113522
0.000392526
0.0113948
0.000428336
0.0114329
0.000480766
0.0114784
0.000528044
0.0115253
0.000584636
0.011575
0.000645812
0.011627
0.000718058
0.0116884
0.000787724
0.0117423
0.000883362
0.0118153
0.000971383
0.0118759
0.00109048
0.0119578
0.00120586
0.0120207
0.00136372
0.0121073
0.00151219
0.0121762
0.00171268
0.0122452
0.00192062
0.0123114
0.00216739
0.0123481
0.00244333
0.0123793
0.00274046
0.0123717
0.00309015
0.0123278
0.00345214
0.00385569
0.0122436
0.0100026
-7.56688e-06
0.0100092
-2.35115e-05
0.0100206
-3.75387e-05
0.0100355
-5.12142e-05
0.0100527
-6.10353e-05
0.0100714
-6.84609e-05
0.0100907
-7.30563e-05
0.0101105
-7.64647e-05
0.0101308
-7.84967e-05
0.0101511
-8.05942e-05
0.0101728
-8.18595e-05
0.0101945
-8.46786e-05
0.0102171
-8.49463e-05
0.0102402
-8.87121e-05
0.0102629
-8.70905e-05
0.0102873
-9.09343e-05
0.0103097
-8.83704e-05
0.0103348
-9.07181e-05
0.0103573
-8.9281e-05
0.0103826
-8.89709e-05
0.0104056
-8.96055e-05
0.0104309
-8.67372e-05
0.0104543
-8.86124e-05
0.0104795
-8.44321e-05
0.0105033
-8.60066e-05
0.0105282
-8.18589e-05
0.0105524
-8.19777e-05
0.010577
-7.84772e-05
0.0106015
-7.65031e-05
0.0106257
-7.40932e-05
0.0106503
-6.90973e-05
0.0106744
-6.86858e-05
0.0106986
-5.97416e-05
0.0107226
-6.11938e-05
0.010747
-4.98545e-05
0.0107697
-4.93962e-05
0.0107958
-4.08695e-05
0.0108159
-3.27492e-05
0.0108448
-3.08845e-05
0.0108619
-1.47247e-05
0.010893
-1.45263e-05
0.0109095
1.17266e-06
0.0109399
8.83329e-06
0.0109581
1.98036e-05
0.0109875
3.24485e-05
0.0110066
4.76325e-05
0.0110376
5.45365e-05
0.0110561
8.16167e-05
0.0110883
8.54818e-05
0.0111104
0.000111167
0.0111383
0.000131722
0.0111701
0.000141224
0.0111929
0.000180178
0.0112308
0.000189501
0.0112573
0.000222419
0.0112936
0.000253102
0.0113294
0.000276236
0.0113661
0.00031515
0.0114059
0.000352761
0.011451
0.000383223
0.0114923
0.000439491
0.011546
0.00047435
0.0115938
0.000536787
0.0116545
0.000585105
0.0117105
0.000662045
0.0117817
0.000716563
0.0118481
0.000816985
0.0119289
0.00089053
0.0120112
0.00100821
0.0120985
0.00111855
0.0122017
0.00126055
0.0122912
0.0014227
0.0124033
0.00160056
0.0124972
0.00182667
0.0125937
0.00207089
0.0126808
0.00235625
0.0127227
0.00269853
0.0127711
0.00304176
0.0127316
0.00349169
0.00390208
0.0126852
0.0100033
-1.08913e-05
0.0100117
-3.18929e-05
0.0100259
-5.17628e-05
0.0100432
-6.84829e-05
0.0100628
-8.05959e-05
0.0100828
-8.84543e-05
0.0101027
-9.2958e-05
0.010123
-9.68344e-05
0.0101433
-9.87624e-05
0.0101645
-0.000101763
0.0101865
-0.000103888
0.0102091
-0.000107301
0.0102321
-0.000107931
0.0102559
-0.000112555
0.0102787
-0.000109888
0.0103036
-0.000115834
0.010326
-0.000110714
0.0103517
-0.000116398
0.010374
-0.000111645
0.0104001
-0.000115003
0.0104229
-0.000112438
0.0104488
-0.00011268
0.0104723
-0.00011207
0.0104979
-0.000110049
0.010522
-0.000110064
0.0105472
-0.000107084
0.0105718
-0.000106609
0.0105966
-0.000103245
0.0106216
-0.000101562
0.0106462
-9.86866e-05
0.0106709
-9.37898e-05
0.0106963
-9.41037e-05
0.0107195
-8.28461e-05
0.0107465
-8.82446e-05
0.0107679
-7.12594e-05
0.0107956
-7.70495e-05
0.0108175
-6.28576e-05
0.0108428
-5.80095e-05
0.0108685
-5.65917e-05
0.0108893
-3.55552e-05
0.0109192
-4.43532e-05
0.0109379
-1.75992e-05
0.010967
-2.02248e-05
0.0109902
-3.44045e-06
0.0110134
9.30808e-06
0.0110439
1.71347e-05
0.0110632
3.52029e-05
0.0110964
4.84318e-05
0.0111171
6.4813e-05
0.0111513
7.68985e-05
0.0111721
0.000110957
0.0112121
0.000101258
0.0112311
0.00016115
0.0112756
0.000145047
0.0113001
0.000197872
0.0113417
0.000211462
0.0113785
0.000239481
0.0114177
0.000275938
0.0114624
0.000308059
0.0115087
0.000336944
0.0115559
0.000392251
0.0116118
0.000418479
0.0116696
0.000479017
0.0117278
0.000526837
0.0118036
0.000586263
0.0118665
0.000653663
0.0119612
0.000722298
0.0120339
0.000817828
0.012147
0.000895075
0.0122454
0.00102023
0.0123613
0.00114464
0.0124971
0.00128689
0.0126183
0.00147934
0.012771
0.00167396
0.0128872
0.00195469
0.0130371
0.00220635
0.0131195
0.00261613
0.0132152
0.00294603
0.0132314
0.00347558
0.00396007
0.0131734
0.0100045
-1.5422e-05
0.0100163
-4.36704e-05
0.0100354
-7.08636e-05
0.010056
-8.9026e-05
0.0100786
-0.000103196
0.0100988
-0.000108748
0.01012
-0.000114133
0.01014
-0.000116856
0.0101618
-0.000120566
0.0101833
-0.000123193
0.0102071
-0.00012767
0.0102295
-0.00012972
0.0102543
-0.000132759
0.0102772
-0.000135485
0.0103017
-0.000134397
0.0103255
-0.000139545
0.0103493
-0.00013457
0.0103742
-0.00014125
0.0103976
-0.000135036
0.0104234
-0.000140877
0.0104466
-0.000135591
0.0104731
-0.000139151
0.0104962
-0.000135264
0.0105227
-0.000136548
0.0105465
-0.000133775
0.0105723
-0.000132934
0.0105971
-0.000131448
0.0106217
-0.000127768
0.010648
-0.000127883
0.0106712
-0.000121882
0.0106981
-0.000120755
0.0107216
-0.000117555
0.0107468
-0.000108023
0.0107732
-0.000114618
0.0107942
-9.22822e-05
0.0108248
-0.000107647
0.010842
-8.00629e-05
0.0108748
-9.08816e-05
0.0108916
-7.32979e-05
0.0109232
-6.71761e-05
0.0109424
-6.35931e-05
0.0109713
-4.64988e-05
0.010993
-4.18645e-05
0.0110213
-3.18308e-05
0.0110439
-1.3232e-05
0.0110724
-1.14121e-05
0.0110983
9.35686e-06
0.0111226
2.41205e-05
0.0111572
3.01687e-05
0.0111754
5.87402e-05
0.0112177
6.86785e-05
0.0112368
8.20844e-05
0.0112782
0.000119803
0.0113067
0.000116521
0.0113459
0.000158649
0.0113799
0.00017749
0.0114288
0.000190559
0.0114577
0.000247031
0.0115231
0.000242669
0.0115521
0.000307994
0.0116251
0.000319213
0.0116641
0.000379482
0.0117482
0.000394936
0.0117935
0.00048149
0.0118888
0.000491006
0.0119621
0.000580332
0.0120468
0.000637659
0.0121572
0.000707381
0.0122623
0.000789999
0.0123869
0.000895656
0.0125242
0.00100726
0.0126841
0.00112705
0.012846
0.00131744
0.0130282
0.00149179
0.0132246
0.0017583
0.0133984
0.00203256
0.0135824
0.00243204
0.0136905
0.00283797
0.0138376
0.00332849
0.00400621
0.0137915
0.010007
-2.24042e-05
0.0100266
-6.33128e-05
0.0100521
-9.63761e-05
0.0100767
-0.00011361
0.0101009
-0.000127329
0.0101224
-0.00013032
0.0101441
-0.000135836
0.010165
-0.000137767
0.0101879
-0.000143405
0.0102109
-0.000146251
0.0102354
-0.00015218
0.0102591
-0.000153345
0.0102837
-0.000157382
0.0103069
-0.000158717
0.0103312
-0.000158639
0.0103544
-0.000162821
0.0103786
-0.00015877
0.0104023
-0.000164868
0.0104266
-0.00015935
0.0104505
-0.00016483
0.0104746
-0.000159699
0.010499
-0.000163535
0.0105226
-0.000158868
0.0105473
-0.000161193
0.0105707
-0.000157173
0.0105949
-0.000157154
0.0106187
-0.000155218
0.0106418
-0.00015095
0.0106661
-0.000152165
0.0106885
-0.000144286
0.0107123
-0.000144528
0.0107357
-0.000140978
0.0107564
-0.000128747
0.0107839
-0.000142025
0.0107988
-0.000107222
0.0108321
-0.000140931
0.010841
-8.89796e-05