/*--------------------------------*- C++ -*----------------------------------*\
| =========                 |                                                 |
| \\      /  F ield         | OpenFOAM: The Open Source CFD Toolbox           |
|  \\    /   O peration     | Version:  2306                                  |
|   \\  /    A nd           | Website:  www.openfoam.com                      |
|    \\/     M anipulation  |                                                 |
\*---------------------------------------------------------------------------*/
FoamFile
{
    version     2.0;
    format      ascii;
    arch        "LSB;label=32;scalar=64";
    class       volVectorField;
    location    "0.3";
    object      U;
}
// * * * * * * * * * * * * * * * * * * * * * * * * * * * * * * * * * * * * * //

dimensions      [0 1 -1 0 0 0 0];

internalField   nonuniform List<vector> 
4400
(
(9.90182 0.0455263 0)
(9.80624 0.0987082 0)
(9.70013 0.120972 0)
(9.57016 0.125786 0)
(9.4182 0.12447 0)
(9.25217 0.12346 0)
(9.08063 0.124124 0)
(8.90821 0.125706 0)
(8.73729 0.126964 0)
(8.56778 0.127425 0)
(8.40013 0.126855 0)
(8.23329 0.125568 0)
(8.06802 0.123749 0)
(7.90317 0.121765 0)
(7.7401 0.11964 0)
(7.57746 0.117558 0)
(7.41713 0.115411 0)
(7.25736 0.113265 0)
(7.10034 0.11105 0)
(6.94391 0.108772 0)
(6.79054 0.106454 0)
(6.63784 0.104026 0)
(6.48842 0.101635 0)
(6.3397 0.0991069 0)
(6.19443 0.0966736 0)
(6.04994 0.0940883 0)
(5.909 0.0916593 0)
(5.76886 0.0890818 0)
(5.63241 0.0866707 0)
(5.49664 0.0841562 0)
(5.36477 0.0818284 0)
(5.23326 0.0794451 0)
(5.10595 0.0772295 0)
(4.97843 0.0749953 0)
(4.85541 0.0729712 0)
(4.73144 0.0709353 0)
(4.61214 0.0691967 0)
(4.49114 0.0674331 0)
(4.37467 0.0661192 0)
(4.25578 0.0647914 0)
(4.14092 0.0640599 0)
(4.02291 0.0633347 0)
(3.90818 0.0633239 0)
(3.7894 0.0633775 0)
(3.67301 0.0641848 0)
(3.55131 0.0651938 0)
(3.431 0.0669113 0)
(3.30365 0.0690349 0)
(3.17659 0.0717734 0)
(3.04035 0.0751338 0)
(2.90307 0.0790378 0)
(2.75421 0.0837229 0)
(2.60262 0.0888795 0)
(2.43697 0.0948648 0)
(2.26656 0.101219 0)
(2.07969 0.108223 0)
(1.88596 0.115397 0)
(1.67372 0.122652 0)
(1.45298 0.129589 0)
(1.21251 0.135498 0)
(0.963213 0.139886 0)
(0.694551 0.140823 0)
(0.418073 0.134229 0)
(0.141089 0.104459 0)
(-0.111415 0.0505854 0)
(-0.358657 -0.0308295 0)
(-0.538665 -0.122406 0)
(-0.65877 -0.230341 0)
(-0.673886 -0.352315 0)
(-0.61477 -0.489383 0)
(-0.422442 -0.61499 0)
(-0.168605 -0.702497 0)
(0.116549 -0.575626 0)
(0.272333 -0.240951 0)
(0.397039 0.42149 0)
(-0.273641 0.911793 0)
(-0.487242 0.359105 0)
(-0.0570216 -0.0648279 0)
(0.256258 -0.0683461 0)
(0.0643578 -0.175516 0)
(10.0004 0.0612 0)
(10.0317 0.137422 0)
(10.0698 0.173665 0)
(10.1048 0.184907 0)
(10.1327 0.186174 0)
(10.1498 0.186214 0)
(10.1592 0.188301 0)
(10.1607 0.191964 0)
(10.1595 0.195918 0)
(10.1533 0.199126 0)
(10.1472 0.201063 0)
(10.1362 0.202092 0)
(10.1259 0.202048 0)
(10.1098 0.201945 0)
(10.095 0.201194 0)
(10.0736 0.200836 0)
(10.0541 0.199966 0)
(10.0279 0.199469 0)
(10.0041 0.198479 0)
(9.97354 0.197735 0)
(9.94562 0.196546 0)
(9.9113 0.195512 0)
(9.87948 0.194138 0)
(9.84168 0.19287 0)
(9.8061 0.191311 0)
(9.76499 0.18992 0)
(9.7259 0.188159 0)
(9.68149 0.186789 0)
(9.63917 0.1848 0)
(9.59138 0.183568 0)
(9.54613 0.181367 0)
(9.49477 0.180417 0)
(9.44671 0.17805 0)
(9.39169 0.177436 0)
(9.34059 0.175116 0)
(9.28199 0.174806 0)
(9.2272 0.172892 0)
(9.1651 0.172847 0)
(9.10584 0.171655 0)
(9.04002 0.172044 0)
(8.9754 0.1718 0)
(8.9051 0.172939 0)
(8.83434 0.173859 0)
(8.7582 0.176204 0)
(8.68053 0.178508 0)
(8.59652 0.182625 0)
(8.51099 0.18655 0)
(8.41662 0.192928 0)
(8.32157 0.19896 0)
(8.21414 0.207893 0)
(8.10701 0.216678 0)
(7.98354 0.228454 0)
(7.86076 0.240512 0)
(7.71784 0.255505 0)
(7.57494 0.271095 0)
(7.40849 0.289573 0)
(7.2403 0.308545 0)
(7.04541 0.330376 0)
(6.84638 0.35187 0)
(6.61758 0.375972 0)
(6.38195 0.397635 0)
(6.1139 0.420834 0)
(5.836 0.437146 0)
(5.52513 0.451787 0)
(5.20721 0.451103 0)
(4.86343 0.447006 0)
(4.49074 0.415913 0)
(4.08711 0.382836 0)
(3.62116 0.324056 0)
(3.10169 0.282198 0)
(2.42824 0.21802 0)
(1.61765 0.220059 0)
(0.580351 0.1615 0)
(-0.135635 0.000158941 0)
(-0.538631 0.0358965 0)
(-0.497745 -0.0571495 0)
(-0.148786 -0.661338 0)
(-0.414263 -0.815785 0)
(-0.301014 -0.0539649 0)
(-0.287414 0.618563 0)
(9.99982 0.0268075 0)
(10.0171 0.0696557 0)
(10.0425 0.100019 0)
(10.075 0.11737 0)
(10.1081 0.126932 0)
(10.1396 0.131767 0)
(10.167 0.136024 0)
(10.1911 0.140284 0)
(10.2128 0.145409 0)
(10.233 0.150357 0)
(10.2534 0.154891 0)
(10.2729 0.158791 0)
(10.2936 0.161579 0)
(10.3125 0.164321 0)
(10.3329 0.165878 0)
(10.3504 0.168095 0)
(10.3696 0.169167 0)
(10.3853 0.171148 0)
(10.4032 0.172032 0)
(10.417 0.173682 0)
(10.4335 0.174481 0)
(10.4455 0.175623 0)
(10.4604 0.176507 0)
(10.4706 0.177011 0)
(10.4836 0.178097 0)
(10.4918 0.17801 0)
(10.5028 0.179311 0)
(10.5087 0.17882 0)
(10.5178 0.180251 0)
(10.5209 0.179608 0)
(10.5281 0.181046 0)
(10.5281 0.1806 0)
(10.533 0.181961 0)
(10.53 0.181935 0)
(10.532 0.183482 0)
(10.5263 0.183808 0)
(10.5244 0.186116 0)
(10.5163 0.186672 0)
(10.5095 0.190208 0)
(10.4992 0.191222 0)
(10.4868 0.1963 0)
(10.4739 0.198141 0)
(10.4554 0.205173 0)
(10.439 0.208356 0)
(10.4142 0.21762 0)
(10.3929 0.223196 0)
(10.3616 0.23454 0)
(10.3338 0.243905 0)
(10.2956 0.257283 0)
(10.2592 0.271583 0)
(10.2137 0.287452 0)
(10.1661 0.307465 0)
(10.1124 0.326577 0)
(10.0511 0.35275 0)
(9.98719 0.37618 0)
(9.91 0.408229 0)
(9.8325 0.437102 0)
(9.73701 0.474077 0)
(9.64178 0.508477 0)
(9.52429 0.548415 0)
(9.40676 0.586539 0)
(9.26125 0.624762 0)
(9.11577 0.66165 0)
(8.93283 0.68977 0)
(8.75064 0.715502 0)
(8.51719 0.724594 0)
(8.27814 0.73194 0)
(7.9643 0.724373 0)
(7.64647 0.729532 0)
(7.22558 0.740685 0)
(6.80295 0.791617 0)
(6.24948 0.870226 0)
(5.71544 0.982229 0)
(5.0257 0.989416 0)
(4.45266 0.894119 0)
(3.43877 0.733941 0)
(2.69722 0.460544 0)
(1.29319 0.25041 0)
(-0.210049 -0.160307 0)
(-0.463627 -0.165755 0)
(9.99974 0.0188289 0)
(10.0105 0.0525705 0)
(10.0274 0.0808039 0)
(10.0513 0.10097 0)
(10.0777 0.114992 0)
(10.1054 0.122844 0)
(10.1316 0.128743 0)
(10.1561 0.132242 0)
(10.1796 0.136646 0)
(10.2011 0.14 0)
(10.2239 0.144299 0)
(10.2448 0.147312 0)
(10.2689 0.150527 0)
(10.2903 0.152672 0)
(10.3153 0.154599 0)
(10.3369 0.15611 0)
(10.3622 0.157338 0)
(10.3834 0.158554 0)
(10.4086 0.159611 0)
(10.4294 0.160544 0)
(10.4543 0.161679 0)
(10.4747 0.162252 0)
(10.4993 0.163583 0)
(10.5191 0.163732 0)
(10.5433 0.165263 0)
(10.5623 0.165145 0)
(10.586 0.166767 0)
(10.6039 0.166731 0)
(10.627 0.168128 0)
(10.6434 0.168769 0)
(10.6659 0.169431 0)
(10.6804 0.171559 0)
(10.7021 0.170971 0)
(10.7147 0.175176 0)
(10.7352 0.173466 0)
(10.7458 0.179576 0)
(10.7644 0.177744 0)
(10.7735 0.184972 0)
(10.7891 0.18438 0)
(10.7974 0.192112 0)
(10.8089 0.193884 0)
(10.8166 0.201995 0)
(10.8236 0.2068 0)
(10.83 0.21579 0)
(10.8333 0.223823 0)
(10.8367 0.23471 0)
(10.8369 0.246178 0)
(10.8366 0.259591 0)
(10.833 0.275721 0)
(10.8292 0.291385 0)
(10.8208 0.314003 0)
(10.8132 0.332088 0)
(10.8001 0.361804 0)
(10.7864 0.384117 0)
(10.7708 0.420013 0)
(10.7464 0.448947 0)
(10.7312 0.489851 0)
(10.6919 0.526573 0)
(10.6769 0.57154 0)
(10.6212 0.615307 0)
(10.6012 0.662121 0)
(10.5275 0.710991 0)
(10.4952 0.754267 0)
(10.3959 0.8052 0)
(10.3413 0.838284 0)
(10.2014 0.888184 0)
(10.1081 0.914212 0)
(9.91082 0.969417 0)
(9.76084 1.0074 0)
(9.49385 1.08444 0)
(9.27114 1.15945 0)
(8.92439 1.26867 0)
(8.62131 1.36603 0)
(8.16892 1.44847 0)
(7.75638 1.47989 0)
(7.15587 1.50371 0)
(6.5638 1.49999 0)
(5.78003 1.53212 0)
(4.90808 1.56101 0)
(3.6791 1.36697 0)
(10.0007 0.0133569 0)
(10.0063 0.0384069 0)
(10.0201 0.0605529 0)
(10.0363 0.0776813 0)
(10.059 0.0907947 0)
(10.0809 0.0986711 0)
(10.1063 0.104795 0)
(10.1282 0.107891 0)
(10.1526 0.111745 0)
(10.1729 0.114042 0)
(10.1966 0.117691 0)
(10.2165 0.120059 0)
(10.2409 0.123085 0)
(10.2614 0.125274 0)
(10.2867 0.127045 0)
(10.308 0.129101 0)
(10.3335 0.129721 0)
(10.3553 0.131928 0)
(10.3805 0.131873 0)
(10.4026 0.134222 0)
(10.4274 0.134015 0)
(10.4498 0.13627 0)
(10.4741 0.136305 0)
(10.4966 0.138123 0)
(10.5206 0.13869 0)
(10.5427 0.139923 0)
(10.5667 0.141239 0)
(10.5876 0.141851 0)
(10.6122 0.144004 0)
(10.631 0.144211 0)
(10.6569 0.147046 0)
(10.6725 0.147433 0)
(10.7002 0.150471 0)
(10.7121 0.151888 0)
(10.7415 0.154718 0)
(10.7498 0.157822 0)
(10.7803 0.160391 0)
(10.785 0.165522 0)
(10.8163 0.16824 0)
(10.8179 0.175335 0)
(10.8488 0.179369 0)
(10.8484 0.187468 0)
(10.8773 0.194999 0)
(10.876 0.202731 0)
(10.9023 0.215585 0)
(10.8997 0.223209 0)
(10.9241 0.240915 0)
(10.9191 0.251254 0)
(10.9426 0.271834 0)
(10.9343 0.287914 0)
(10.9576 0.310874 0)
(10.9459 0.333382 0)
(10.9682 0.360844 0)
(10.9552 0.388628 0)
(10.9737 0.423038 0)
(10.9624 0.456004 0)
(10.9755 0.496975 0)
(10.9652 0.537626 0)
(10.9744 0.582251 0)
(10.9617 0.631742 0)
(10.9662 0.67992 0)
(10.9502 0.732858 0)
(10.9422 0.788264 0)
(10.9215 0.838593 0)
(10.8913 0.900704 0)
(10.8554 0.954027 0)
(10.7986 1.01903 0)
(10.7284 1.09237 0)
(10.6445 1.16319 0)
(10.5195 1.27032 0)
(10.4096 1.35748 0)
(10.2114 1.49798 0)
(10.077 1.60085 0)
(9.78058 1.74739 0)
(9.61814 1.84395 0)
(9.17825 1.96175 0)
(8.9623 2.04397 0)
(8.29178 2.11525 0)
(7.95739 2.18143 0)
(6.96162 2.18976 0)
(10.001 0.00972054 0)
(10.0044 0.0279294 0)
(10.0158 0.0448586 0)
(10.0281 0.058685 0)
(10.0472 0.0700633 0)
(10.0658 0.0776946 0)
(10.0886 0.0834472 0)
(10.1096 0.0870191 0)
(10.1326 0.0901466 0)
(10.1537 0.0926238 0)
(10.1761 0.0951121 0)
(10.197 0.0976238 0)
(10.22 0.0997054 0)
(10.2411 0.102331 0)
(10.2653 0.103384 0)
(10.2864 0.106174 0)
(10.312 0.105962 0)
(10.3325 0.109126 0)
(10.3594 0.107991 0)
(10.3789 0.111456 0)
(10.4069 0.110121 0)
(10.4253 0.113479 0)
(10.4542 0.112651 0)
(10.4715 0.115229 0)
(10.5012 0.115633 0)
(10.5173 0.116839 0)
(10.5478 0.119108 0)
(10.5625 0.118547 0)
(10.5937 0.123008 0)
(10.6066 0.120849 0)
(10.6389 0.12719 0)
(10.6491 0.124412 0)
(10.6831 0.13155 0)
(10.69 0.129771 0)
(10.7258 0.136566 0)
(10.7293 0.136927 0)
(10.7665 0.143186 0)
(10.7666 0.145874 0)
(10.8051 0.152208 0)
(10.802 0.157308 0)
(10.8408 0.164008 0)
(10.8356 0.172069 0)
(10.8735 0.179456 0)
(10.8671 0.190625 0)
(10.9036 0.199994 0)
(10.8958 0.213585 0)
(10.9316 0.226757 0)
(10.9218 0.242345 0)
(10.957 0.260621 0)
(10.9464 0.278754 0)
(10.9794 0.302382 0)
(10.9703 0.325028 0)
(10.9991 0.352806 0)
(10.9943 0.382885 0)
(11.0167 0.414214 0)
(11.019 0.45159 0)
(11.0326 0.490083 0)
(11.0446 0.530793 0)
(11.0479 0.579606 0)
(11.0683 0.624256 0)
(11.0631 0.678225 0)
(11.0863 0.73378 0)
(11.0738 0.786911 0)
(11.0935 0.85473 0)
(11.0719 0.913228 0)
(11.0786 0.987363 0)
(11.0503 1.06441 0)
(11.0257 1.14508 0)
(10.9979 1.24807 0)
(10.9223 1.347 0)
(10.9022 1.47386 0)
(10.7581 1.60546 0)
(10.7553 1.74487 0)
(10.5219 1.91393 0)
(10.5381 2.03776 0)
(10.1945 2.24241 0)
(10.178 2.30794 0)
(9.72997 2.55603 0)
(9.54285 2.54896 0)
(9.08013 2.84496 0)
(10.0005 0.00685891 0)
(10.0041 0.0202492 0)
(10.0126 0.0324216 0)
(10.0242 0.0433329 0)
(10.0393 0.0521823 0)
(10.0572 0.0589355 0)
(10.0763 0.063912 0)
(10.0977 0.0673713 0)
(10.1183 0.0700845 0)
(10.1406 0.072191 0)
(10.1613 0.0741791 0)
(10.1834 0.0760558 0)
(10.2052 0.0780048 0)
(10.2266 0.0797622 0)
(10.2506 0.0813556 0)
(10.2707 0.0829892 0)
(10.2976 0.0838589 0)
(10.3155 0.0856474 0)
(10.3455 0.0857655 0)
(10.3606 0.0878979 0)
(10.3938 0.0877423 0)
(10.406 0.0900017 0)
(10.4417 0.0900849 0)
(10.4516 0.0920943 0)
(10.4888 0.0928234 0)
(10.4977 0.0943878 0)
(10.5347 0.0960179 0)
(10.5441 0.0969483 0)
(10.5792 0.0998839 0)
(10.5902 0.0999388 0)
(10.6228 0.10461 0)
(10.6352 0.103784 0)
(10.6655 0.110164 0)
(10.6786 0.109247 0)
(10.7072 0.1165 0)
(10.7202 0.117021 0)
(10.7478 0.123816 0)
(10.7593 0.127657 0)
(10.7875 0.132694 0)
(10.7958 0.141611 0)
(10.8256 0.144016 0)
(10.8303 0.158995 0)
(10.8611 0.159287 0)
(10.8638 0.179704 0)
(10.8936 0.180161 0)
(10.8967 0.204416 0)
(10.9225 0.207216 0)
(10.9294 0.235183 0)
(10.9489 0.240718 0)
(10.9611 0.273421 0)
(10.9745 0.283089 0)
(10.991 0.318445 0)
(11.0007 0.337654 0)
(11.0201 0.371203 0)
(11.0274 0.403905 0)
(11.0494 0.436573 0)
(11.055 0.479687 0)
(11.0795 0.516686 0)
(11.0835 0.5679 0)
(11.1098 0.608471 0)
(11.1131 0.672575 0)
(11.1355 0.712234 0)
(11.1442 0.793579 0)
(11.1523 0.832803 0)
(11.1685 0.932992 0)
(11.1598 0.97646 0)
(11.1767 1.09638 0)
(11.1468 1.15485 0)
(11.1693 1.29137 0)
(11.0957 1.38149 0)
(11.1444 1.52817 0)
(11.0034 1.66816 0)
(11.0848 1.81178 0)
(10.8852 2.01096 0)
(10.9566 2.14057 0)
(10.7441 2.38169 0)
(10.7231 2.49666 0)
(10.5345 2.76107 0)
(10.3567 2.8598 0)
(10.1708 3.1281 0)
(10.0003 0.00435891 0)
(10.0037 0.0141236 0)
(10.011 0.0219329 0)
(10.0215 0.0300403 0)
(10.035 0.0362118 0)
(10.051 0.0412365 0)
(10.0692 0.0454404 0)
(10.0889 0.0476789 0)
(10.1096 0.0506698 0)
(10.1305 0.0512732 0)
(10.1523 0.0539612 0)
(10.1729 0.053937 0)
(10.1963 0.0570276 0)
(10.2156 0.0565357 0)
(10.2418 0.0598658 0)
(10.2587 0.0590203 0)
(10.289 0.0620452 0)
(10.3026 0.0614019 0)
(10.3372 0.0635467 0)
(10.3472 0.0638709 0)
(10.3857 0.0649404 0)
(10.3923 0.0665155 0)
(10.4337 0.066617 0)
(10.438 0.0693053 0)
(10.4806 0.0688329 0)
(10.4846 0.0723444 0)
(10.526 0.0717137 0)
(10.532 0.0756435 0)
(10.5697 0.0755494 0)
(10.5798 0.0793048 0)
(10.612 0.0805483 0)
(10.6269 0.0837908 0)
(10.6538 0.0866067 0)
(10.6723 0.0899463 0)
(10.6951 0.093751 0)
(10.7156 0.0980463 0)
(10.7358 0.10281 0)
(10.7565 0.107941 0)
(10.776 0.114774 0)
(10.7952 0.120202 0)
(10.8146 0.129551 0)
(10.8326 0.136486 0)
(10.8509 0.146941 0)
(10.8692 0.157812 0)
(10.8855 0.168365 0)
(10.9039 0.183703 0)
(10.9193 0.196334 0)
(10.937 0.214128 0)
(10.9522 0.231974 0)
(10.9696 0.251345 0)
(10.9843 0.274673 0)
(11.0023 0.298437 0)
(11.0167 0.325092 0)
(11.0351 0.355496 0)
(11.0501 0.387452 0)
(11.0691 0.42038 0)
(11.0854 0.465457 0)
(11.1034 0.494226 0)
(11.1238 0.558418 0)
(11.1378 0.581534 0)
(11.1628 0.665023 0)
(11.1735 0.687198 0)
(11.2007 0.784891 0)
(11.2038 0.818081 0)
(11.2416 0.921182 0)
(11.2186 0.977617 0)
(11.2815 1.08625 0)
(11.2179 1.16988 0)
(11.306 1.29006 0)
(11.2052 1.40861 0)
(11.302 1.54168 0)
(11.1803 1.70169 0)
(11.2636 1.85021 0)
(11.1356 2.05477 0)
(11.1858 2.20529 0)
(11.0614 2.46292 0)
(11.0547 2.60051 0)
(10.9292 2.89132 0)
(10.8562 3.04546 0)
(10.7014 3.28388 0)
(9.99996 0.00231727 0)
(10.0035 0.00864137 0)
(10.01 0.0125547 0)
(10.0198 0.0180003 0)
(10.0325 0.0212529 0)
(10.0471 0.0245359 0)
(10.0652 0.0274166 0)
(10.083 0.0284136 0)
(10.1048 0.0312778 0)
(10.1233 0.0305943 0)
(10.1473 0.0336005 0)
(10.1653 0.0323047 0)
(10.1915 0.0356394 0)
(10.2079 0.0341266 0)
(10.2369 0.0375942 0)
(10.2509 0.0360982 0)
(10.2838 0.0391123 0)
(10.2948 0.0383106 0)
(10.3317 0.0400576 0)
(10.3396 0.0410082 0)
(10.38 0.0409064 0)
(10.3852 0.0440779 0)
(10.4277 0.0420659 0)
(10.4315 0.0474187 0)
(10.4744 0.0438085 0)
(10.4787 0.0512298 0)
(10.5195 0.0461214 0)
(10.5271 0.0556294 0)
(10.5626 0.0493688 0)
(10.5762 0.0603799 0)
(10.6043 0.0543698 0)
(10.6252 0.0651973 0)
(10.6449 0.0616836 0)
(10.6733 0.0706067 0)
(10.6846 0.0710821 0)
(10.7201 0.0776648 0)
(10.7236 0.0822752 0)
(10.7647 0.0872335 0)
(10.7629 0.0956287 0)
(10.8061 0.0998229 0)
(10.8028 0.111549 0)
(10.8445 0.116184 0)
(10.8427 0.13065 0)
(10.8809 0.136953 0)
(10.882 0.153809 0)
(10.9159 0.163018 0)
(10.9208 0.181227 0)
(10.9502 0.196631 0)
(10.9585 0.212727 0)
(10.9856 0.238876 0)
(10.9947 0.251284 0)
(11.0232 0.287566 0)
(11.0304 0.301687 0)
(11.0621 0.342139 0)
(11.0681 0.364272 0)
(11.1023 0.407139 0)
(11.1079 0.437064 0)
(11.145 0.485938 0)
(11.1502 0.521814 0)
(11.188 0.579323 0)
(11.1993 0.622166 0)
(11.2258 0.688684 0)
(11.2561 0.74331 0)
(11.2601 0.816802 0)
(11.3116 0.88959 0)
(11.2951 0.973074 0)
(11.3579 1.06514 0)
(11.3293 1.16582 0)
(11.3893 1.28274 0)
(11.3574 1.40431 0)
(11.4039 1.54838 0)
(11.3698 1.70774 0)
(11.3989 1.86398 0)
(11.3573 2.07797 0)
(11.3669 2.24683 0)
(11.311 2.48893 0)
(11.2904 2.70769 0)
(11.2273 2.92419 0)
(11.1328 3.20199 0)
(11.0857 3.39596 0)
(9.99926 0.000576095 0)
(10.0038 0.003286 0)
(10.009 0.00394136 0)
(10.0194 0.00651846 0)
(10.0309 0.00704703 0)
(10.0455 0.00845638 0)
(10.0633 0.00969754 0)
(10.0802 0.00954906 0)
(10.1027 0.0118436 0)
(10.1195 0.0101352 0)
(10.1453 0.0132237 0)
(10.1614 0.010819 0)
(10.1893 0.0143431 0)
(10.2043 0.0118239 0)
(10.2344 0.0154759 0)
(10.2479 0.0131254 0)
(10.2807 0.016467 0)
(10.2922 0.0148622 0)
(10.3283 0.0171002 0)
(10.3377 0.0175267 0)
(10.3763 0.0174947 0)
(10.3838 0.0210154 0)
(10.4238 0.0180494 0)
(10.4306 0.0249309 0)
(10.4706 0.0194406 0)
(10.4785 0.0290056 0)
(10.5155 0.0220343 0)
(10.528 0.0331858 0)
(10.5579 0.0261667 0)
(10.5793 0.0374915 0)
(10.598 0.0321876 0)
(10.6312 0.0422303 0)
(10.6369 0.0401273 0)
(10.6823 0.0482376 0)
(10.6755 0.0496343 0)
(10.7315 0.0563228 0)
(10.7145 0.0609929 0)
(10.7774 0.066573 0)
(10.7556 0.0752568 0)
(10.8189 0.0790607 0)
(10.7988 0.0925685 0)
(10.8574 0.0954678 0)
(10.8419 0.111919 0)
(10.895 0.117794 0)
(10.884 0.133966 0)
(10.9321 0.145025 0)
(10.9261 0.162629 0)
(10.9681 0.175097 0)
(10.9693 0.199803 0)
(11.0038 0.211163 0)
(11.0133 0.241912 0)
(11.0407 0.25904 0)
(11.0581 0.288114 0)
(11.0804 0.317868 0)
(11.1034 0.344725 0)
(11.1242 0.384349 0)
(11.1508 0.415052 0)
(11.1705 0.461151 0)
(11.2028 0.500268 0)
(11.2197 0.548609 0)
(11.2572 0.606704 0)
(11.2751 0.648684 0)
(11.312 0.733882 0)
(11.3342 0.774163 0)
(11.3703 0.880304 0)
(11.3912 0.933349 0)
(11.4322 1.05506 0)
(11.4434 1.13469 0)
(11.4911 1.26676 0)
(11.4927 1.38817 0)
(11.5373 1.53345 0)
(11.5332 1.69176 0)
(11.5651 1.88085 0)
(11.5555 2.04575 0)
(11.5623 2.30361 0)
(11.5457 2.4796 0)
(11.5149 2.76796 0)
(11.4842 2.99324 0)
(11.3993 3.26036 0)
(11.3359 3.53707 0)
(9.99914 -0.000864076 0)
(10.0037 -0.00227646 0)
(10.009 -0.00432114 0)
(10.0193 -0.00486411 0)
(10.0307 -0.00691004 0)
(10.0456 -0.00729981 0)
(10.0631 -0.00805039 0)
(10.0805 -0.00894585 0)
(10.1025 -0.00786273 0)
(10.1197 -0.00994142 0)
(10.1451 -0.00746801 0)
(10.1617 -0.0103103 0)
(10.1891 -0.00727549 0)
(10.2051 -0.0100855 0)
(10.2338 -0.00716902 0)
(10.2493 -0.0092388 0)
(10.2796 -0.00706226 0)
(10.2945 -0.00771789 0)
(10.3267 -0.00687259 0)
(10.341 -0.00528856 0)
(10.374 -0.0064649 0)
(10.3883 -0.00220035 0)
(10.421 -0.00552808 0)
(10.4363 0.00120668 0)
(10.4672 -0.00359003 0)
(10.4854 0.00488523 0)
(10.5119 -0.000619606 0)
(10.536 0.0092375 0)
(10.5543 0.0033379 0)
(10.5881 0.0144316 0)
(10.5951 0.00892977 0)
(10.6401 0.0200771 0)
(10.6358 0.0171077 0)
(10.6906 0.0261008 0)
(10.6769 0.0279026 0)
(10.7389 0.0335305 0)
(10.7187 0.0407314 0)
(10.7846 0.0436224 0)
(10.7624 0.0554783 0)
(10.8261 0.0569368 0)
(10.8089 0.0727653 0)
(10.8638 0.0737218 0)
(10.8567 0.0934755 0)
(10.9006 0.0941344 0)
(10.9033 0.118643 0)
(10.9384 0.11875 0)
(10.9495 0.148608 0)
(10.9758 0.149454 0)
(10.9974 0.182795 0)
(11.0133 0.188288 0)
(11.0456 0.222089 0)
(11.0543 0.235305 0)
(11.0941 0.269314 0)
(11.0978 0.28932 0)
(11.1472 0.328737 0)
(11.1424 0.349088 0)
(11.2037 0.402659 0)
(11.1954 0.419427 0)
(11.2575 0.486237 0)
(11.2598 0.510677 0)
(11.3134 0.578954 0)
(11.3286 0.621841 0)
(11.3781 0.693972 0)
(11.3994 0.751547 0)
(11.4501 0.834596 0)
(11.4736 0.914872 0)
(11.5291 1.00361 0)
(11.5465 1.1163 0)
(11.6141 1.22409 0)
(11.6197 1.35589 0)
(11.6888 1.51107 0)
(11.6982 1.65647 0)
(11.7448 1.8566 0)
(11.7575 2.04991 0)
(11.78 2.26666 0)
(11.7805 2.52504 0)
(11.7675 2.76172 0)
(11.7357 3.06455 0)
(11.688 3.32705 0)
(11.5852 3.64069 0)
(9.99943 -0.00220927 0)
(10.0035 -0.00817904 0)
(10.0098 -0.0124962 0)
(10.0199 -0.0168051 0)
(10.0318 -0.0207986 0)
(10.0475 -0.0235194 0)
(10.0648 -0.0257694 0)
(10.0836 -0.0276637 0)
(10.1046 -0.0276939 0)
(10.1234 -0.0300452 0)
(10.1474 -0.0284155 0)
(10.1655 -0.0313632 0)
(10.1915 -0.0292242 0)
(10.2092 -0.0319131 0)
(10.2362 -0.0301558 0)
(10.2541 -0.0316484 0)
(10.2817 -0.0307225 0)
(10.3003 -0.0306354 0)
(10.3282 -0.0306201 0)
(10.3481 -0.0288315 0)
(10.3748 -0.0299669 0)
(10.3968 -0.0262475 0)
(10.4211 -0.0289052 0)
(10.446 -0.022845 0)
(10.4675 -0.0272624 0)
(10.4952 -0.0187469 0)
(10.5137 -0.0245822 0)
(10.5446 -0.0141817 0)
(10.559 -0.0202411 0)
(10.5948 -0.00934405 0)
(10.6033 -0.0136879 0)
(10.6449 -0.00404933 0)
(10.6474 -0.00486074 0)
(10.6937 0.00240147 0)
(10.6917 0.00583973 0)
(10.7412 0.0108237 0)
(10.7358 0.0187229 0)
(10.7876 0.021035 0)
(10.7804 0.0350223 0)
(10.8312 0.0326263 0)
(10.8278 0.0547917 0)
(10.871 0.0483368 0)
(10.8773 0.0749416 0)
(10.9098 0.0723373 0)
(10.9254 0.0943956 0)
(10.9517 0.103286 0)
(10.9709 0.119469 0)
(10.9957 0.134573 0)
(11.0181 0.156207 0)
(11.0387 0.167257 0)
(11.0692 0.199584 0)
(11.0832 0.210711 0)
(11.1204 0.24446 0)
(11.135 0.26685 0)
(11.1718 0.296317 0)
(11.1907 0.331554 0)
(11.2316 0.360344 0)
(11.2463 0.405799 0)
(11.3002 0.438239 0)
(11.3089 0.492455 0)
(11.3722 0.53222 0)
(11.3821 0.597 0)
(11.4503 0.644223 0)
(11.4646 0.723604 0)
(11.5345 0.784536 0)
(11.5606 0.873772 0)
(11.6227 0.963081 0)
(11.6664 1.06318 0)
(11.7237 1.17758 0)
(11.7688 1.31891 0)
(11.8377 1.43839 0)
(11.8688 1.64226 0)
(11.943 1.78952 0)
(11.9628 2.02444 0)
(12.0249 2.24648 0)
(12.0184 2.50165 0)
(12.0596 2.78908 0)
(12.0096 3.08148 0)
(12.0011 3.41265 0)
(11.8815 3.74024 0)
(9.999 -0.00390764 0)
(10.0044 -0.0142647 0)
(10.0106 -0.0213024 0)
(10.022 -0.0295024 0)
(10.0342 -0.0353328 0)
(10.0516 -0.0403995 0)
(10.069 -0.0437846 0)
(10.0897 -0.0466352 0)
(10.1098 -0.0476596 0)
(10.1305 -0.0502212 0)
(10.1529 -0.049439 0)
(10.1731 -0.0527213 0)
(10.197 -0.0509421 0)
(10.2169 -0.0545324 0)
(10.242 -0.0526113 0)
(10.2621 -0.0549525 0)
(10.288 -0.0541076 0)
(10.3087 -0.0537585 0)
(10.3351 -0.0550515 0)
(10.3567 -0.0515444 0)
(10.3824 -0.0550885 0)
(10.4053 -0.0490185 0)
(10.4297 -0.0537948 0)
(10.4541 -0.0465703 0)
(10.4775 -0.050862 0)
(10.5027 -0.0442096 0)
(10.5257 -0.0462976 0)
(10.5511 -0.0413951 0)
(10.5737 -0.0403258 0)
(10.5997 -0.0375564 0)
(10.6212 -0.0327908 0)
(10.6479 -0.032609 0)
(10.669 -0.0232347 0)
(10.6947 -0.0263385 0)
(10.7169 -0.0119011 0)
(10.7412 -0.0174911 0)
(10.7632 0.000359344 0)
(10.789 -0.0048909 0)
(10.8075 0.0136508 0)
(10.837 0.0109649 0)
(10.8525 0.0299269 0)
(10.8826 0.0289361 0)
(10.8997 0.0505079 0)
(10.9273 0.0497992 0)
(10.9463 0.0746125 0)
(10.9746 0.0758375 0)
(10.9909 0.102206 0)
(11.0243 0.106054 0)
(11.0381 0.13708 0)
(11.0724 0.139277 0)
(11.0908 0.17839 0)
(11.1212 0.182603 0)
(11.1461 0.218574 0)
(11.1749 0.241828 0)
(11.2057 0.263652 0)
(11.2303 0.304605 0)
(11.2768 0.329783 0)
(11.2856 0.367962 0)
(11.3568 0.410364 0)
(11.3529 0.449049 0)
(11.4361 0.500051 0)
(11.4388 0.546286 0)
(11.521 0.614987 0)
(11.5348 0.659136 0)
(11.6209 0.751151 0)
(11.6416 0.814513 0)
(11.7362 0.902211 0)
(11.7598 1.01619 0)
(11.8688 1.10876 0)
(11.8905 1.24591 0)
(12.0145 1.39575 0)
(12.0304 1.54322 0)
(12.1596 1.75643 0)
(12.1766 1.94013 0)
(12.2803 2.21397 0)
(12.301 2.45752 0)
(12.3477 2.77721 0)
(12.3517 3.11142 0)
(12.3284 3.44978 0)
(12.2586 3.86585 0)
(9.99796 -0.00638198 0)
(10.0063 -0.0204358 0)
(10.0109 -0.0317388 0)
(10.0262 -0.043006 0)
(10.0372 -0.0513827 0)
(10.0593 -0.0578828 0)
(10.0748 -0.0626465 0)
(10.1002 -0.0656255 0)
(10.117 -0.0681899 0)
(10.1426 -0.0699815 0)
(10.1604 -0.0712903 0)
(10.1858 -0.0733831 0)
(10.2047 -0.0737847 0)
(10.23 -0.0763515 0)
(10.2504 -0.076063 0)
(10.2753 -0.0777898 0)
(10.2976 -0.0777665 0)
(10.3218 -0.0772984 0)
(10.3459 -0.0787059 0)
(10.3695 -0.0757835 0)
(10.3943 -0.0785075 0)
(10.4179 -0.0740766 0)
(10.4425 -0.0767646 0)
(10.4669 -0.07234 0)
(10.4911 -0.0735308 0)
(10.5158 -0.0702303 0)
(10.5402 -0.0690637 0)
(10.5646 -0.0672197 0)
(10.5891 -0.0633245 0)
(10.6137 -0.0630059 0)
(10.6376 -0.0560339 0)
(10.6625 -0.0572288 0)
(10.6865 -0.0475573 0)
(10.7102 -0.0486067 0)
(10.7356 -0.0390635 0)
(10.7578 -0.0357948 0)
(10.7826 -0.0303875 0)
(10.808 -0.0203004 0)
(10.8262 -0.0176236 0)
(10.8602 -0.00631506 0)
(10.8697 0.00322077 0)
(10.9098 0.00593832 0)
(10.9175 0.0286219 0)
(10.956 0.0248751 0)
(10.9669 0.0501627 0)
(11.0055 0.0562165 0)
(11.0116 0.0697536 0)
(11.0615 0.0928186 0)
(11.0574 0.0989524 0)
(11.114 0.126367 0)
(11.1157 0.140818 0)
(11.1592 0.163569 0)
(11.1817 0.18511 0)
(11.2136 0.215307 0)
(11.2416 0.230164 0)
(11.283 0.276101 0)
(11.3061 0.290978 0)
(11.3531 0.335149 0)
(11.3875 0.373109 0)
(11.4276 0.40448 0)
(11.4767 0.459634 0)
(11.5187 0.505459 0)
(11.5762 0.549967 0)
(11.6203 0.628254 0)
(11.6959 0.676679 0)
(11.7386 0.756233 0)
(11.8269 0.853252 0)
(11.8862 0.915665 0)
(11.9786 1.06144 0)
(12.0483 1.14654 0)
(12.155 1.31637 0)
(12.2449 1.45607 0)
(12.328 1.65269 0)
(12.4556 1.87691 0)
(12.5085 2.10453 0)
(12.635 2.42016 0)
(12.6588 2.71429 0)
(12.7368 3.11005 0)
(12.7025 3.5034 0)
(12.695 3.92465 0)
(9.99832 -0.00944481 0)
(10.0073 -0.0279558 0)
(10.0131 -0.0443243 0)
(10.0314 -0.0586475 0)
(10.0435 -0.0690648 0)
(10.0699 -0.0770809 0)
(10.0852 -0.0816401 0)
(10.1142 -0.0857869 0)
(10.1294 -0.0879838 0)
(10.1581 -0.0907909 0)
(10.1734 -0.092326 0)
(10.202 -0.095384 0)
(10.2177 -0.0954349 0)
(10.247 -0.10012 0)
(10.2639 -0.0972856 0)
(10.2934 -0.103258 0)
(10.3117 -0.0983747 0)
(10.3409 -0.10362 0)
(10.3602 -0.0995629 0)
(10.3897 -0.101884 0)
(10.4082 -0.100538 0)
(10.4395 -0.0992575 0)
(10.4562 -0.100252 0)
(10.4896 -0.096485 0)
(10.5052 -0.0982714 0)
(10.539 -0.0934594 0)
(10.555 -0.0948836 0)
(10.5885 -0.089549 0)
(10.6043 -0.0900325 0)
(10.6391 -0.0847245 0)
(10.6527 -0.0828233 0)
(10.6898 -0.079495 0)
(10.7019 -0.0727175 0)
(10.7383 -0.0731278 0)
(10.753 -0.0612722 0)
(10.7851 -0.0626826 0)
(10.8034 -0.0514708 0)
(10.8347 -0.0455434 0)
(10.8494 -0.0434224 0)
(10.8881 -0.0239824 0)
(10.8938 -0.0317061 0)
(10.9398 -0.00373587 0)
(10.9437 -0.0114057 0)
(10.9854 0.0151608 0)
(10.9985 0.0131903 0)
(11.0323 0.0406293 0)
(11.0492 0.0367185 0)
(11.0892 0.072889 0)
(11.0944 0.0686815 0)
(11.1504 0.0984667 0)
(11.1475 0.119197 0)
(11.2058 0.120808 0)
(11.2114 0.173249 0)
(11.2664 0.16289 0)
(11.274 0.215971 0)
(11.3392 0.22556 0)
(11.3467 0.264316 0)
(11.4069 0.290529 0)
(11.4442 0.33222 0)
(11.4778 0.360333 0)
(11.5456 0.414935 0)
(11.5799 0.442515 0)
(11.644 0.518189 0)
(11.7056 0.536774 0)
(11.7663 0.644368 0)
(11.8428 0.665551 0)
(11.9136 0.779038 0)
(12.0146 0.84985 0)
(12.0787 0.943949 0)
(12.2187 1.07525 0)
(12.2944 1.18129 0)
(12.4325 1.36813 0)
(12.5514 1.51246 0)
(12.6888 1.7539 0)
(12.8048 2.00126 0)
(12.9439 2.27744 0)
(13.0399 2.67631 0)
(13.1447 3.00848 0)
(13.167 3.5437 0)
(13.1756 3.96822 0)
(9.9993 -0.0133992 0)
(10.0082 -0.0379241 0)
(10.0179 -0.0606102 0)
(10.0391 -0.0772889 0)
(10.0557 -0.0901431 0)
(10.0851 -0.0981379 0)
(10.1028 -0.102822 0)
(10.1331 -0.107229 0)
(10.1491 -0.109242 0)
(10.178 -0.11286 0)
(10.1939 -0.114889 0)
(10.2226 -0.118321 0)
(10.2385 -0.119115 0)
(10.2687 -0.12369 0)
(10.2853 -0.121108 0)
(10.3162 -0.127339 0)
(10.334 -0.121935 0)
(10.3641 -0.128291 0)
(10.3833 -0.122857 0)
(10.4132 -0.127212 0)
(10.432 -0.123627 0)
(10.4633 -0.125106 0)
(10.4807 -0.123292 0)
(10.5136 -0.122574 0)
(10.5303 -0.121382 0)
(10.5634 -0.119707 0)
(10.5805 -0.117929 0)
(10.6138 -0.116118 0)
(10.6296 -0.112584 0)
(10.6657 -0.112136 0)
(10.6776 -0.104053 0)
(10.7173 -0.108499 0)
(10.7272 -0.0921452 0)
(10.7653 -0.103285 0)
(10.781 -0.0804784 0)
(10.8094 -0.0912093 0)
(10.8361 -0.073698 0)
(10.8548 -0.069843 0)
(10.887 -0.0694676 0)
(10.9049 -0.0461163 0)
(10.9353 -0.0567934 0)
(10.954 -0.0305273 0)
(10.9889 -0.0287707 0)
(10.997 -0.0219757 0)
(11.0473 0.00608385 0)
(11.044 -0.00598009 0)
(11.0963 0.0348703 0)
(11.1096 0.0233142 0)
(11.1316 0.0638481 0)
(11.1844 0.0519895 0)
(11.1774 0.107547 0)
(11.2449 0.0767904 0)
(11.2483 0.15407 0)
(11.2996 0.124236 0)
(11.3201 0.181224 0)
(11.3787 0.198622 0)
(11.3841 0.212754 0)
(11.4696 0.262046 0)
(11.4713 0.28422 0)
(11.5541 0.309046 0)
(11.5808 0.372941 0)
(11.6606 0.387417 0)
(11.6886 0.442626 0)
(11.8037 0.509181 0)
(11.8154 0.527062 0)
(11.9554 0.636457 0)
(11.9959 0.658307 0)
(12.1195 0.783287 0)
(12.2114 0.833554 0)
(12.3346 0.953254 0)
(12.4763 1.08651 0)
(12.5862 1.18394 0)
(12.7943 1.41306 0)
(12.9058 1.54925 0)
(13.1317 1.87201 0)
(13.2649 2.08908 0)
(13.4717 2.54754 0)
(13.5868 2.91116 0)
(13.6961 3.49398 0)
(13.7752 4.05341 0)
(9.9976 -0.0190591 0)
(10.0132 -0.0516012 0)
(10.0238 -0.0817489 0)
(10.0554 -0.0994985 0)
(10.073 -0.115741 0)
(10.1113 -0.121124 0)
(10.1267 -0.128451 0)
(10.1628 -0.130361 0)
(10.1754 -0.135966 0)
(10.2073 -0.137402 0)
(10.222 -0.143755 0)
(10.2504 -0.144007 0)
(10.2693 -0.14903 0)
(10.2948 -0.149911 0)
(10.3186 -0.150448 0)
(10.3408 -0.15451 0)
(10.3687 -0.150049 0)
(10.3877 -0.156889 0)
(10.4172 -0.14985 0)
(10.4367 -0.156966 0)
(10.4632 -0.149959 0)
(10.4879 -0.155344 0)
(10.5079 -0.149488 0)
(10.5393 -0.152502 0)
(10.5534 -0.148215 0)
(10.5889 -0.148139 0)
(10.6002 -0.146763 0)
(10.6366 -0.141378 0)
(10.648 -0.144876 0)
(10.6823 -0.133364 0)
(10.6973 -0.139299 0)
(10.724 -0.127967 0)
(10.7509 -0.126084 0)
(10.7591 -0.126841 0)
(10.8095 -0.106728 0)
(10.7908 -0.124375 0)
(10.8658 -0.0894873 0)
(10.83 -0.111642 0)
(10.9087 -0.0802142 0)
(10.884 -0.087921 0)
(10.9389 -0.0725739 0)
(10.9441 -0.0636994 0)
(10.973 -0.0553571 0)
(10.9941 -0.0445678 0)
(11.0206 -0.0314321 0)
(11.0392 -0.0185884 0)
(11.066 -0.0158785 0)
(11.1018 0.0236861 0)
(11.0965 -0.0058334 0)
(11.1783 0.0663012 0)
(11.136 0.0247108 0)
(11.2409 0.0903559 0)
(11.2055 0.0777704 0)
(11.2974 0.113503 0)
(11.2776 0.12793 0)
(11.3807 0.159597 0)
(11.3459 0.163707 0)
(11.4719 0.229367 0)
(11.4513 0.198041 0)
(11.5454 0.303886 0)
(11.5976 0.257223 0)
(11.6292 0.372287 0)
(11.7561 0.337121 0)
(11.7527 0.453202 0)
(11.9304 0.440723 0)
(11.9063 0.53305 0)
(12.1383 0.592373 0)
(12.1124 0.637458 0)
(12.356 0.739245 0)
(12.3941 0.815526 0)
(12.6396 0.928312 0)
(12.7215 1.0347 0)
(13.0055 1.19663 0)
(13.1501 1.38288 0)
(13.4133 1.58165 0)
(13.6657 1.90449 0)
(13.8807 2.24707 0)
(14.1824 2.77725 0)
(14.2307 3.27173 0)
(14.5545 4.1057 0)
(9.99322 -0.0266628 0)
(10.0249 -0.069036 0)
(10.0344 -0.100764 0)
(10.0841 -0.116002 0)
(10.0989 -0.127841 0)
(10.1502 -0.130373 0)