/*--------------------------------*- C++ -*----------------------------------*\
| =========                 |                                                 |
| \\      /  F ield         | OpenFOAM: The Open Source CFD Toolbox           |
|  \\    /   O peration     | Version:  2306                                  |
|   \\  /    A nd           | Website:  www.openfoam.com                      |
|    \\/     M anipulation  |                                                 |
\*---------------------------------------------------------------------------*/
FoamFile
{
    version     2.0;
    format      ascii;
    arch        "LSB;label=32;scalar=64";
    class       volScalarField;
    location    "0.2";
    object      p;
}
// * * * * * * * * * * * * * * * * * * * * * * * * * * * * * * * * * * * * * //

dimensions      [0 2 -2 0 0 0 0];

internalField   nonuniform List<scalar> 
17600
(
485.352
483.308
481.531
480.3
479.537
479.031
478.613
478.206
477.788
477.365
476.945
476.532
476.129
475.732
475.34
474.953
474.572
474.2
473.839
473.492
473.164
472.857
472.573
472.314
472.08
471.873
471.69
471.531
471.394
471.275
471.172
471.082
471.003
470.933
470.868
470.807
470.748
470.69
470.633
470.575
470.515
470.455
470.393
470.329
470.263
470.196
470.128
470.058
469.988
469.916
469.844
469.772
469.7
469.627
469.555
469.482
469.411
469.339
469.269
469.199
469.13
469.061
468.994
468.928
468.862
468.798
468.735
468.673
468.613
468.554
468.496
468.44
468.385
468.331
468.279
468.229
468.18
468.133
468.088
468.044
468.002
467.963
467.925
467.889
467.856
467.825
467.796
467.769
467.745
467.724
467.705
467.689
467.676
467.666
467.66
467.656
467.656
467.659
467.666
467.677
467.691
467.71
467.732
467.759
467.79
467.826
467.867
467.912
467.962
468.017
468.077
468.142
468.213
468.289
468.37
468.456
468.548
468.644
468.746
468.854
468.966
469.082
469.204
469.329
469.459
469.592
469.728
469.867
470.009
470.152
470.296
470.44
470.585
470.728
470.871
471.011
471.148
471.283
471.414
471.54
471.663
471.78
471.893
471.999
472.101
472.196
472.286
472.371
472.451
472.526
472.597
472.664
472.726
472.784
472.839
472.892
472.942
472.99
473.037
473.08
482.623
481.853
480.927
480.063
479.372
478.849
478.429
478.047
477.667
477.278
476.884
476.49
476.1
475.716
475.336
474.963
474.595
474.235
473.886
473.551
473.233
472.933
472.655
472.399
472.168
471.96
471.776
471.614
471.472
471.348
471.241
471.146
471.061
470.985
470.915
470.849
470.786
470.724
470.663
470.602
470.54
470.477
470.412
470.347
470.28
470.211
470.142
470.071
470
469.928
469.855
469.782
469.709
469.636
469.564
469.491
469.419
469.347
469.277
469.206
469.137
469.069
469.001
468.935
468.869
468.805
468.742
468.68
468.619
468.56
468.502
468.446
468.39
468.337
468.285
468.234
468.186
468.138
468.093
468.05
468.008
467.968
467.93
467.895
467.861
467.83
467.801
467.775
467.751
467.73
467.711
467.695
467.682
467.672
467.666
467.662
467.662
467.665
467.672
467.683
467.698
467.717
467.74
467.767
467.799
467.835
467.876
467.921
467.972
468.027
468.088
468.154
468.225
468.301
468.383
468.47
468.563
468.66
468.763
468.871
468.984
469.102
469.224
469.351
469.481
469.615
469.752
469.892
470.034
470.177
470.322
470.466
470.611
470.754
470.895
471.034
471.171
471.304
471.433
471.559
471.68
471.796
471.908
472.014
472.114
472.209
472.297
472.381
472.46
472.534
472.603
472.668
472.729
472.787
472.841
472.892
472.941
472.989
473.034
473.078
481.319
480.969
480.44
479.828
479.236
478.722
478.289
477.909
477.548
477.187
476.819
476.447
476.075
475.707
475.345
474.989
474.64
474.299
473.969
473.651
473.348
473.06
472.791
472.542
472.313
472.105
471.918
471.75
471.601
471.468
471.35
471.244
471.15
471.063
470.983
470.908
470.837
470.768
470.7
470.632
470.565
470.497
470.429
470.361
470.291
470.221
470.15
470.078
470.006
469.933
469.86
469.787
469.714
469.64
469.567
469.495
469.422
469.351
469.28
469.21
469.14
469.071
469.004
468.937
468.871
468.807
468.744
468.682
468.621
468.561
468.503
468.446
468.391
468.337
468.284
468.233
468.184
468.137
468.091
468.047
468.005
467.965
467.927
467.89
467.857
467.825
467.795
467.768
467.744
467.722
467.703
467.686
467.673
467.662
467.655
467.651
467.65
467.652
467.659
467.669
467.683
467.7
467.722
467.749
467.78
467.815
467.855
467.899
467.949
468.004
468.064
468.129
468.199
468.274
468.355
468.442
468.534
468.631
468.733
468.841
468.954
469.072
469.195
469.322
469.453
469.588
469.726
469.867
470.011
470.157
470.303
470.451
470.598
470.745
470.889
471.032
471.172
471.309
471.441
471.569
471.692
471.809
471.921
472.026
472.125
472.218
472.306
472.389
472.467
472.541
472.611
472.676
472.736
472.793
472.846
472.896
472.944
472.99
473.035
473.08
480.415
480.223
479.89
479.454
478.98
478.524
478.113
477.745
477.401
477.065
476.725
476.38
476.032
475.685
475.343
475.007
474.678
474.356
474.045
473.744
473.455
473.181
472.922
472.68
472.456
472.25
472.062
471.891
471.736
471.597
471.47
471.356
471.252
471.156
471.067
470.983
470.903
470.826
470.75
470.677
470.603
470.531
470.459
470.386
470.314
470.241
470.167
470.094
470.02
469.946
469.871
469.797
469.723
469.649
469.575
469.502
469.429
469.357
469.285
469.214
469.144
469.075
469.007
468.94
468.874
468.809
468.745
468.682
468.621
468.561
468.502
468.444
468.388
468.334
468.281
468.229
468.179
468.131
468.084
468.039
467.996
467.955
467.916
467.879
467.844
467.811
467.78
467.752
467.727
467.703
467.683
467.665
467.65
467.638
467.629
467.623
467.62
467.621
467.625
467.633
467.645
467.661
467.681
467.705
467.733
467.766
467.803
467.845
467.892
467.944
468.001
468.063
468.131
468.204
468.282
468.365
468.454
468.549
468.649
468.754
468.864
468.98
469.101
469.226
469.356
469.49
469.628
469.769
469.913
470.06
470.209
470.359
470.509
470.66
470.809
470.958
471.104
471.247
471.387
471.522
471.653
471.779
471.899
472.012
472.119
472.219
472.312
472.398
472.478
472.551
472.618
472.681
472.74
472.796
472.85
472.901
472.949
472.994
473.039
473.085
479.729
479.604
479.376
479.059
478.688
478.303
477.932
477.586
477.261
476.946
476.63
476.31
475.986
475.661
475.339
475.022
474.711
474.407
474.112
473.826
473.552
473.289
473.04
472.805
472.586
472.382
472.194
472.021
471.863
471.718
471.585
471.464
471.351
471.247
471.15
471.058
470.97
470.886
470.804
470.724
470.646
470.568
470.492
470.415
470.339
470.263
470.188
470.112
470.036
469.96
469.884
469.809
469.733
469.658
469.584
469.51
469.436
469.363
469.291
469.219
469.149
469.079
469.01
468.942
468.876
468.81
468.745
468.682
468.62
468.559
468.499
468.441
468.384
468.328
468.274
468.222
468.171
468.121
468.073
468.027
467.983
467.94
467.9
467.861
467.825
467.79
467.758
467.728
467.7
467.675
467.652
467.632
467.615
467.6
467.589
467.58
467.575
467.573
467.574
467.579
467.587
467.6
467.616
467.636
467.66
467.689
467.722
467.76
467.802
467.849
467.901
467.958
468.02
468.087
468.16
468.238
468.321
468.409
468.503
468.602
468.707
468.817
468.932
469.051
469.176
469.305
469.438
469.575
469.716
469.86
470.006
470.155
470.305
470.456
470.608
470.759
470.91
471.06
471.207
471.353
471.494
471.632
471.766
471.894
472.016
472.132
472.24
472.342
472.437
472.524
472.605
472.678
472.744
472.803
472.855
472.903
472.949
472.994
473.041
473.089
479.182
479.092
478.925
478.687
478.396
478.076
477.75
477.434
477.129
476.832
476.537
476.239
475.937
475.634
475.331
475.031
474.737
474.449
474.169
473.897
473.634
473.382
473.142
472.914
472.699
472.498
472.311
472.137
471.976
471.827
471.689
471.561
471.442
471.331
471.227
471.128
471.034
470.943
470.855
470.77
470.687
470.605
470.524
470.444
470.365
470.286
470.208
470.13
470.052
469.974
469.897
469.82
469.743
469.667
469.592
469.517
469.443
469.369
469.296
469.224
469.152
469.082
469.013
468.944
468.876
468.81
468.745
468.68
468.617
468.555
468.495
468.436
468.378
468.321
468.266
468.212
468.159
468.109
468.06
468.012
467.966
467.922
467.88
467.839
467.801
467.764
467.73
467.698
467.668
467.64
467.615
467.592
467.572
467.554
467.539
467.528
467.519
467.513
467.51
467.511
467.515
467.523
467.534
467.549
467.568
467.591
467.618
467.65
467.686
467.726
467.771
467.821
467.875
467.935
467.999
468.068
468.143
468.222
468.307
468.397
468.492
468.592
468.697
468.807
468.921
469.041
469.165
469.292
469.424
469.56
469.699
469.84
469.985
470.131
470.28
470.43
470.58
470.731
470.882
471.033
471.182
471.329
471.474
471.616
471.755
471.89
472.02
472.144
472.264
472.376
472.482
472.579
472.669
472.75
472.823
472.889
472.947
472.999
473.045
473.09
478.733
478.664
478.536
478.351
478.118
477.851
477.569
477.283
477.001
476.723
476.447
476.168
475.886
475.602
475.317
475.034
474.755
474.482
474.215
473.955
473.703
473.46
473.228
473.006
472.796
472.598
472.412
472.238
472.075
471.923
471.781
471.648
471.524
471.407
471.297
471.192
471.092
470.996
470.903
470.813
470.726
470.64
470.555
470.472
470.389
470.308
470.227
470.147
470.067
469.988
469.909
469.831
469.753
469.676
469.599
469.524
469.448
469.374
469.3
469.227
469.155
469.084
469.014
468.944
468.876
468.809
468.743
468.678
468.614
468.551
468.489
468.429
468.37
468.312
468.255
468.2
468.147
468.094
468.044
467.994
467.947
467.901
467.857
467.815
467.774
467.735
467.699
467.664
467.631
467.601
467.573
467.547
467.524
467.503
467.484
467.469
467.456
467.446
467.439
467.435
467.434
467.436
467.442
467.451
467.464
467.481
467.501
467.526
467.554
467.586
467.623
467.664
467.71
467.759
467.814
467.873
467.937
468.005
468.078
468.156
468.238
468.326
468.418
468.514
468.616
468.721
468.831
468.945
469.063
469.185
469.311
469.44
469.573
469.708
469.846
469.987
470.13
470.275
470.422
470.57
470.719
470.869
471.019
471.169
471.319
471.468
471.616
471.761
471.904
472.044
472.179
472.31
472.434
472.551
472.661
472.761
472.852
472.934
473.007
473.072
478.358
478.304
478.201
478.051
477.86
477.636
477.392
477.136
476.877
476.618
476.359
476.097
475.833
475.567
475.299
475.031
474.767
474.506
474.251
474.002
473.76
473.526
473.301
473.085
472.879
472.684
472.499
472.325
472.161
472.007
471.862
471.726
471.598
471.476
471.361
471.251
471.146
471.046
470.948
470.854
470.762
470.672
470.584
470.498
470.413
470.329
470.245
470.163
470.082
470.001
469.92
469.841
469.762
469.684
469.606
469.529
469.453
469.378
469.304
469.23
469.157
469.085
469.014
468.944
468.875
468.807
468.739
468.673
468.609
468.545
468.482
468.421
468.36
468.301
468.243
468.187
468.132
468.078
468.026
467.975
467.926
467.878
467.832
467.788
467.745
467.704
467.665
467.628
467.592
467.559
467.528
467.499
467.472
467.447
467.425
467.406
467.389
467.374
467.362
467.353
467.347
467.344
467.344
467.347
467.353
467.363
467.376
467.393
467.413
467.437
467.465
467.496
467.532
467.571
467.615
467.663
467.714
467.77
467.831
467.895
467.963
468.036
468.113
468.194
468.28
468.369
468.462
468.559
468.66
468.765
468.873
468.985
469.1
469.219
469.341
469.466
469.594
469.725
469.859
469.996
470.136
470.279
470.425
470.574
470.725
470.879
471.035
471.193
471.353
471.513
471.673
471.833
471.991
472.146
472.297
472.443
472.581
472.71
472.829
472.935
478.042
477.997
477.912
477.788
477.627
477.436
477.222
476.994
476.758
476.517
476.275
476.029
475.781
475.53
475.277
475.024
474.773
474.524
474.279
474.04
473.807
473.581
473.363
473.152
472.951
472.759
472.575
472.402
472.237
472.082
471.934
471.795
471.663
471.538
471.419
471.305
471.196
471.091
470.99
470.891
470.796
470.703
470.612
470.522
470.435
470.348
470.263
470.178
470.095
470.013
469.931
469.85
469.77
469.691
469.612
469.534
469.457
469.381
469.306
469.231
469.158
469.085
469.013
468.942
468.872
468.803
468.735
468.668
468.602
468.537
468.474
468.411
468.35
468.289
468.23
468.172
468.116
468.061
468.007
467.954
467.903
467.854
467.806
467.759
467.714
467.671
467.629
467.589
467.551
467.515
467.481
467.448
467.418
467.39
467.364
467.34
467.319
467.299
467.283
467.269
467.257
467.248
467.242
467.239
467.239
467.241
467.247
467.255
467.267
467.282
467.301
467.323
467.348
467.377
467.409
467.445
467.484
467.527
467.573
467.623
467.677
467.734
467.795
467.86
467.928
467.999
468.074
468.152
468.234
468.318
468.407
468.498
468.593
468.691
468.792
468.896
469.004
469.116
469.231
469.35
469.474
469.601
469.733
469.87
470.012
470.159
470.312
470.47
470.634
470.803
470.977
471.156
471.339
471.524
471.711
471.897
472.081
472.261
472.434
472.596
477.772
477.734
477.662
477.556
477.419
477.253
477.065
476.86
476.645
476.422
476.195
475.964
475.73
475.493
475.254
475.014
474.774
474.536
474.302
474.072
473.847
473.628
473.415
473.21
473.012
472.823
472.641
472.468
472.304
472.147
471.998
471.856
471.722
471.593
471.471
471.353
471.241
471.132
471.027
470.926
470.827
470.731
470.637
470.545
470.455
470.366
470.279
470.193
470.108
470.024
469.941
469.858
469.777
469.697
469.617
469.539
469.461
469.384
469.307
469.232
469.158
469.084
469.011
468.939
468.869
468.799
468.73
468.662
468.595
468.529
468.464
468.401
468.338
468.276
468.216
468.157
468.099
468.042
467.986
467.932
467.879
467.828
467.778
467.729
467.682
467.636
467.592
467.549
467.508
467.469
467.432
467.396
467.362
467.33
467.3
467.272
467.246
467.223
467.201
467.182
467.165
467.15
467.138
467.128
467.121
467.116
467.114
467.115
467.118
467.124
467.133
467.145
467.16
467.178
467.198
467.222
467.248
467.278
467.31
467.346
467.384
467.426
467.47
467.517
467.567
467.62
467.676
467.734
467.795
467.859
467.925
467.995
468.067
468.142
468.22
468.301
468.385
468.473
468.565
468.661
468.761
468.867
468.978
469.095
469.219
469.35
469.488
469.635
469.791
469.955
470.129
470.313
470.505
470.706
470.916
471.131
471.352
471.575
471.797
472.013
477.542
477.509
477.447
477.355
477.234
477.088
476.921
476.736
476.539
476.333
476.12
475.903
475.682
475.457
475.23
475.001
474.772
474.544
474.319
474.097
473.879
473.666
473.459
473.259
473.065
472.878
472.698
472.526
472.361
472.204
472.054
471.91
471.773
471.642
471.517
471.396
471.281
471.169
471.061
470.957
470.855
470.757
470.66
470.566
470.473
470.383
470.293
470.206
470.119
470.033
469.949
469.866
469.783
469.702
469.621
469.542
469.463
469.385
469.308
469.232
469.156
469.082
469.008
468.936
468.864
468.793
468.723
468.655
468.587
468.52
468.454
468.389
468.325
468.262
468.2
468.14
468.08
468.022
467.965
467.909
467.854
467.801
467.748
467.697
467.648
467.6
467.553
467.508
467.464
467.422
467.381
467.342
467.305
467.269
467.235
467.203
467.173
467.144
467.117
467.093
467.07
467.05
467.031
467.015
467.001
466.989
466.979
466.972
466.966
466.964
466.963
466.965
466.969
466.976
466.985
466.996
467.01
467.026
467.044
467.065
467.088
467.113
467.141
467.17
467.202
467.236
467.272
467.31
467.35
467.392
467.436
467.482
467.53
467.581
467.634
467.69
467.749
467.81
467.876
467.946
468.02
468.099
468.184
468.276
468.375
468.482
468.599
468.725
468.862
469.011
469.172
469.346
469.534
469.736
469.951
470.18
470.42
470.67
470.928
471.189
477.346
477.317
477.261
477.18
477.073
476.943
476.792
476.624
476.442
476.251
476.052
475.846
475.636
475.423
475.206
474.988
474.768
474.549
474.332
474.117
473.906
473.699
473.496
473.3
473.109
472.924
472.747
472.575
472.411
472.253
472.102
471.957
471.818
471.685
471.557
471.435
471.316
471.202
471.092
470.985
470.881
470.78
470.681
470.584
470.49
470.397
470.306
470.217
470.129
470.042
469.956
469.872
469.788
469.706
469.624
469.544
469.464
469.385
469.307
469.23
469.154
469.079
469.005
468.931
468.858
468.787
468.716
468.646
468.577
468.509
468.442
468.376
468.311
468.247
468.184
468.122
468.061
468.001
467.942
467.884
467.828
467.772
467.718
467.665
467.613
467.562
467.513
467.465
467.418
467.373
467.329
467.287
467.246
467.206
467.168
467.132
467.097
467.064
467.032
467.002
466.974
466.948
466.923
466.9
466.879
466.859
466.842
466.826
466.813
466.801
466.791
466.783
466.776
466.772
466.769
466.768
466.769
466.772
466.776
466.782
466.789
466.798
466.809
466.821
466.834
466.849
466.865
466.882
466.901
466.921
466.942
466.964
466.988
467.013
467.041
467.07
467.101
467.136
467.173
467.214
467.259
467.309
467.365
467.428
467.498
467.576
467.665
467.764
467.875
468
468.139
468.293
468.465
468.654
468.861
469.086
469.329
469.59
469.865
470.154
477.179
477.153
477.103
477.03
476.933
476.815
476.678
476.523
476.355
476.177
475.989
475.795
475.595
475.391
475.183
474.974
474.763
474.551
474.341
474.133
473.927
473.725
473.527
473.334
473.146
472.964
472.788
472.617
472.453
472.295
472.143
471.998
471.857
471.722
471.593
471.468
471.347
471.231
471.118
471.009
470.903
470.8
470.699
470.601
470.504
470.41
470.318
470.227
470.137
470.049
469.962
469.877
469.792
469.709
469.626
469.545
469.464
469.385
469.306
469.228
469.151
469.075
469
468.925
468.852
468.779
468.708
468.637
468.567
468.498
468.429
468.362
468.296
468.231
468.166
468.103
468.04
467.979
467.918
467.858
467.8
467.743
467.686
467.631
467.577
467.524
467.472
467.421
467.371
467.323
467.276
467.23
467.185
467.142
467.1
467.059
467.02
466.982
466.945
466.91
466.876
466.844
466.813
466.783
466.755
466.729
466.703
466.68
466.657
466.636
466.617
466.599
466.582
466.566
466.552
466.539
466.527
466.516
466.506
466.497
466.489
466.482
466.475
466.47
466.465
466.46
466.456
466.452
466.449
466.446
466.444
466.442
466.441
466.441
466.441
466.443
466.447
466.452
466.46
466.471
466.485
466.504
466.528
466.558
466.596
466.643
466.699
466.766
466.846
466.94
467.05
467.178
467.324
467.49
467.677
467.887
468.12
468.375
468.653
468.953
477.038
477.014
476.969
476.902
476.814
476.705
476.578
476.435
476.279
476.111
475.933
475.748
475.557
475.362
475.162
474.96
474.756
474.552
474.347
474.145
473.944
473.746
473.552
473.362
473.177
472.997
472.822
472.653
472.489
472.331
472.179
472.032
471.89
471.754
471.623
471.496
471.374
471.256
471.141
471.03
470.922
470.817
470.714
470.614
470.517
470.421
470.327
470.235
470.144
470.055
469.967
469.88
469.795
469.71
469.627
469.545
469.463
469.383
469.303
469.225
469.147
469.07
468.994
468.919
468.844
468.771
468.698
468.626
468.555
468.485
468.416
468.348
468.28
468.213
468.147
468.082
468.018
467.955
467.893
467.832
467.771
467.712
467.653
467.596
467.539
467.484
467.429
467.376
467.323
467.272
467.221
467.172
467.124
467.077
467.031
466.986
466.942
466.899
466.857
466.817
466.777
466.739
466.702
466.666
466.631
466.597
466.564
466.532
466.501
466.471
466.442
466.413
466.386
466.359
466.333
466.308
466.283
466.259
466.235
466.211
466.187
466.164
466.141
466.117
466.093
466.069
466.045
466.02
465.995
465.97
465.944
465.917
465.891
465.864
465.837
465.811
465.785
465.761
465.738
465.717
465.699
465.685
465.675
465.671
465.674
465.685
465.706
465.738
465.783
465.842
465.918
466.012
466.127
466.263
466.423
466.608
466.819
467.058
467.326
467.622
476.921
476.899
476.857
476.795
476.713
476.612
476.494
476.36
476.213
476.053
475.885
475.708
475.524
475.336
475.143
474.947
474.75
474.551
474.352
474.154
473.957
473.763
473.572
473.385
473.202
473.024
472.85
472.682
472.518
472.36
472.208
472.06
471.918
471.781
471.648
471.52
471.396
471.276
471.16
471.047
470.938
470.831
470.727
470.626
470.527
470.43
470.335
470.241
470.149
470.059
469.97
469.882
469.796
469.711
469.627
469.543
469.461
469.38
469.3
469.22
469.142
469.064
468.987
468.911
468.836
468.762
468.688
468.615
468.543
468.472
468.401
468.332
468.263
468.195
468.128
468.061
467.996
467.931
467.867
467.804
467.742
467.68
467.62
467.56
467.501
467.443
467.386
467.33
467.274
467.22
467.166
467.113
467.061
467.01
466.96
466.911
466.862
466.815
466.768
466.722
466.677
466.633
466.589
466.547
466.505
466.463
466.423
466.383
466.343
466.304
466.266
466.227
466.19
466.152
466.114
466.077
466.039
466.001
465.963
465.924
465.885
465.846
465.805
465.764
465.721
465.678
465.633
465.587
465.54
465.492
465.442
465.39
465.338
465.284
465.229
465.174
465.118
465.063
465.008
464.954
464.902
464.853
464.808
464.767
464.733
464.706
464.689
464.682
464.689
464.709
464.747
464.803
464.881
464.981
465.107
465.261
465.444
465.659
465.906
466.187
476.826
476.806
476.766
476.708
476.631
476.536
476.425
476.298
476.157
476.005
475.844
475.673
475.496
475.314
475.127
474.936
474.743
474.549
474.354
474.16
473.967
473.776
473.588
473.403
473.222
473.045
472.873
472.705
472.542
472.384
472.231
472.083
471.94
471.802
471.669
471.539
471.414
471.293
471.176
471.062
470.951
470.843
470.738
470.635
470.535
470.436
470.34
470.246
470.153
470.062
469.972
469.883
469.796
469.71
469.625
469.541
469.458
469.376
469.295
469.215
469.136
469.057
468.98
468.903
468.827
468.751
468.677
468.603
468.53
468.458
468.386
468.315
468.245
468.176
468.107
468.04
467.972
467.906
467.84
467.776
467.711
467.648
467.585
467.523
467.462
467.401
467.342
467.283
467.224
467.167
467.11
467.053
466.998
466.943
466.889
466.835
466.782
466.73
466.678
466.627
466.576
466.526
466.477
466.427
466.378
466.33
466.281
466.233
466.185
466.137
466.089
466.041
465.993
465.944
465.895
465.845
465.795
465.743
465.691
465.638
465.583
465.527
465.47
465.41
465.349
465.286
465.221
465.154
465.084
465.013
464.938
464.862
464.783
464.701
464.618
464.533
464.446
464.359
464.27
464.182
464.095
464.009
463.926
463.847
463.773
463.706
463.648
463.599
463.563
463.542
463.537
463.552
463.588
463.648
463.736
463.853
464.001
464.185
464.404
464.663
476.751
476.732
476.695
476.639
476.566
476.476
476.369
476.248
476.113
475.967
475.81
475.645
475.473
475.295
475.113
474.927
474.738
474.547
474.356
474.165
473.975
473.786
473.6
473.417
473.238
473.062
472.89
472.723
472.56
472.403
472.25
472.101
471.958
471.819
471.684
471.554
471.428
471.306
471.187
471.072
470.96
470.851
470.745
470.641
470.54
470.441
470.344
470.248
470.155
470.063
469.972
469.883
469.795
469.708
469.622
469.538
469.454
469.372
469.29
469.209
469.129
469.05
468.971
468.893
468.816
468.74
468.665
468.59
468.516
468.443
468.37
468.298
468.227
468.156
468.086
468.017
467.948
467.88
467.813
467.746
467.68
467.615
467.55
467.486
467.422
467.359
467.297
467.235
467.174
467.113
467.053
466.993
466.934
466.875
466.817
466.759
466.702
466.644
466.588
466.531
466.475
466.419
466.363
466.307
466.252
466.196
466.14
466.084
466.027
465.97
465.913
465.855
465.796
465.736
465.675
465.614
465.55
465.486
465.42
465.351
465.281
465.209
465.135
465.058
464.978
464.895
464.81
464.721
464.629
464.533
464.434
464.332
464.226
464.116
464.004
463.888
463.77
463.649
463.526
463.402
463.277
463.153
463.031
462.911
462.795
462.684
462.582
462.489
462.407
462.34
462.289
462.257
462.248
462.264
462.307
462.382
462.492
462.638
462.824
463.054
476.696
476.678
476.642
476.588
476.518
476.431
476.328
476.21
476.08
475.937
475.785
475.624
475.456
475.281
475.102
474.919
474.733
474.545
474.357
474.168
473.98
473.793
473.609
473.427
473.248
473.073
472.903
472.736
472.573
472.416
472.263
472.114
471.97
471.831
471.695
471.565
471.438
471.315
471.195
471.079
470.967
470.857
470.75
470.645
470.543
470.443
470.345
470.249
470.155
470.062
469.971
469.881
469.792
469.705
469.619
469.533
469.449
469.366
469.283
469.202
469.121
469.041
468.962
468.883
468.805
468.728
468.652
468.576
468.501
468.427
468.353
468.28
468.207
468.136
468.064
467.994
467.923
467.854
467.785
467.716
467.648
467.581
467.514
467.448
467.382
467.316
467.251
467.187
467.122
467.059
466.995
466.932
466.869
466.807
466.744
466.682
466.62
466.559
466.497
466.435
466.373
466.312
466.25
466.187
466.125
466.062
465.998
465.934
465.869
465.803
465.736
465.669
465.599
465.529
465.457
465.383
465.307
465.229
465.149
465.066
464.981
464.892
464.801
464.706
464.608
464.505
464.399
464.288
464.174
464.054
463.93
463.802
463.669
463.53
463.388
463.241
463.089
462.934
462.776
462.614
462.451
462.286
462.122
461.958
461.798
461.641
461.491
461.349
461.219
461.101
461
460.918
460.858
460.824
460.819
460.848
460.912
461.016
461.164
461.358
476.66
476.642
476.607
476.555
476.486
476.401
476.3
476.185
476.057
475.918
475.768
475.61
475.444
475.272
475.095
474.914
474.73
474.544
474.357
474.169
473.983
473.797
473.614
473.433
473.255
473.081
472.91
472.744
472.582
472.424
472.271
472.122
471.978
471.838
471.702
471.571
471.443
471.32
471.2
471.083
470.97
470.859
470.752
470.647
470.544
470.443
470.345
470.248
470.153
470.06
469.968
469.878
469.788
469.7
469.614
469.528
469.443
469.359
469.276
469.193
469.112
469.031
468.951
468.872
468.794
468.716
468.638
468.562
468.486
468.41
468.336
468.261
468.187
468.114
468.042
467.969
467.898
467.827
467.756
467.686
467.616
467.546
467.477
467.409
467.341
467.273
467.205
467.138
467.071
467.004
466.937
466.871
466.804
466.738
466.672
466.605
466.539
466.473
466.406
466.339
466.272
466.204
466.136
466.067
465.998
465.928
465.857
465.785
465.711
465.637
465.561
465.483
465.404
465.323
465.239
465.154
465.065
464.974
464.88
464.783
464.682
464.578
464.469
464.356
464.239
464.117
463.99
463.858
463.72
463.577
463.428
463.273
463.112
462.944
462.771
462.592
462.407
462.216
462.02
461.82
461.616
461.409
461.2
460.991
460.782
460.577
460.376
460.182
459.997
459.825
459.669
459.531
459.416
459.327
459.268
459.244
459.258
459.314
459.417
459.57
476.641
476.624
476.589
476.538
476.47
476.386
476.286
476.172
476.046
475.908
475.759
475.602
475.437
475.267
475.09
474.91
474.727
474.542
474.356
474.17
473.984
473.799
473.616
473.435
473.258
473.084
472.913
472.747
472.585
472.427
472.274
472.125
471.98
471.84
471.704
471.573
471.445
471.321
471.201
471.084
470.97
470.859
470.751
470.645
470.542
470.441
470.342
470.245
470.15
470.056
469.964
469.873
469.783
469.695
469.607
469.521
469.435
469.351
469.267
469.184
469.102
469.021
468.94
468.86
468.781
468.702
468.624
468.547
468.47
468.393
468.317
468.242
468.167
468.092
468.018
467.945
467.872
467.799
467.727
467.655
467.583
467.512
467.44
467.37
467.299
467.229
467.159
467.089
467.019
466.949
466.879
466.809
466.739
466.669
466.599
466.528
466.458
466.387
466.315
466.243
466.17
466.097
466.023
465.948
465.872
465.795
465.716
465.636
465.555
465.472
465.387
465.3
465.21
465.118
465.024
464.926
464.825
464.721
464.613
464.502
464.386
464.265
464.14
464.009
463.873
463.732
463.584
463.43
463.27
463.102
462.927
462.746
462.556
462.359
462.154
461.942
461.722
461.495
461.261
461.02
460.774
460.522
460.267
460.009
459.749
459.491
459.235
458.985
458.742
458.511
458.294
458.095
457.919
457.769
457.65
457.566
457.523
457.525
457.577
457.683
476.641
476.623
476.589
476.537
476.469
476.385
476.286
476.172
476.045
475.907
475.759
475.602
475.437
475.266
475.09
474.91
474.727
474.541
474.355
474.169
473.983
473.798
473.615
473.434
473.257
473.083
472.912
472.746
472.583
472.425
472.272
472.123
471.978
471.838
471.702
471.57
471.443
471.318
471.198
471.081
470.967
470.856
470.747
470.642
470.538
470.437
470.338
470.24
470.145
470.051
469.958
469.867
469.777
469.688
469.6
469.513
469.427
469.342
469.258
469.174
469.092
469.01
468.928
468.848
468.768
468.688
468.609
468.531
468.453
468.375
468.298
468.222
468.146
468.07
467.995
467.92
467.845
467.771
467.697
467.623
467.55
467.476
467.403
467.33
467.257
467.185
467.112
467.039
466.966
466.894
466.821
466.747
466.674
466.6
466.526
466.452
466.377
466.301
466.225
466.148
466.07
465.991
465.911
465.829
465.747
465.663
465.577
465.489
465.4
465.308
465.214
465.117
465.018
464.915
464.81
464.701
464.588
464.471
464.349
464.223
464.092
463.956
463.814
463.666
463.511
463.35
463.182
463.006
462.822
462.631
462.43
462.221
462.003
461.776
461.54
461.293
461.038
460.773
460.499
460.216
459.926
459.627
459.323
459.013
458.7
458.385
458.07
457.759
457.453
457.157
456.873
456.607
456.363
456.145
455.958
455.809
455.702
455.642
455.636
455.688
476.658
476.64
476.605
476.553
476.484
476.399
476.299
476.184
476.056
475.916
475.766
475.608
475.442
475.27
475.093
474.911
474.727
474.541
474.354
474.167
473.98
473.794
473.611
473.43
473.252
473.077
472.906
472.74
472.577
472.419
472.265
472.116
471.972
471.832
471.696
471.564
471.436
471.312
471.191
471.074
470.96
470.849
470.741
470.635
470.532
470.43
470.331
470.234
470.138
470.043
469.951
469.859
469.769
469.68
469.591
469.504
469.418
469.332
469.248
469.164
469.08
468.998
468.916
468.834
468.754
468.673
468.594
468.514
468.435
468.357
468.279
468.201
468.124
468.047
467.97
467.894
467.818
467.742
467.667
467.591
467.516
467.441
467.366
467.29
467.215
467.14
467.065
466.99
466.914
466.838
466.762
466.686
466.609
466.532
466.454
466.375
466.296
466.216
466.135
466.053
465.969
465.885
465.799
465.712
465.622
465.532
465.439
465.343
465.246
465.146
465.043
464.937
464.828
464.715
464.599
464.478
464.353
464.223
464.089
463.948
463.803
463.65
463.492
463.326
463.153
462.973
462.784
462.586
462.38
462.164
461.938
461.702
461.455
461.197
460.928
460.647
460.355
460.052
459.737
459.41
459.073
458.726
458.37
458.006
457.635
457.26
456.882
456.504
456.13
455.763
455.407
455.066
454.746
454.452
454.19
453.966
453.786
453.656
453.584
453.574
476.694
476.675
476.64
476.586
476.516
476.428
476.325
476.208
476.077
475.935
475.782
475.621
475.453
475.278
475.099
474.915
474.729
474.541
474.352
474.163
473.975
473.788
473.603
473.421
473.243
473.067
472.896
472.729
472.566
472.408
472.254
472.105
471.96
471.82
471.685
471.553
471.426
471.302
471.181
471.065
470.951
470.84
470.732
470.626
470.523
470.422
470.322
470.225
470.129
470.035
469.942
469.85
469.76
469.67
469.582
469.494
469.407
469.322
469.236
469.152
469.068
468.985
468.902
468.82
468.739
468.658
468.577
468.497
468.417
468.338
468.259
468.18
468.102
468.024
467.946
467.868
467.791
467.713
467.636
467.559
467.482
467.405
467.328
467.251
467.173
467.096
467.018
466.94
466.862
466.783
466.704
466.625
466.544
466.463
466.382
466.299
466.216
466.131
466.045
465.958
465.87
465.78
465.689
465.595
465.5
465.402
465.302
465.2
465.094
464.986
464.874
464.759
464.641
464.518
464.391
464.259
464.122
463.98
463.832
463.678
463.517
463.35
463.175
462.992
462.801
462.601
462.392
462.172
461.943
461.703
461.451
461.187
460.911
460.623
460.321
460.005
459.676
459.333
458.975
458.604
458.219
457.821
457.411
456.989
456.557
456.117
455.671
455.222
454.774
454.329
453.892
453.469
453.065
452.686
452.338
452.03
451.767
451.558
451.41
451.33
476.748
476.729
476.692
476.636
476.563
476.472
476.366
476.244
476.109
475.963
475.806
475.641