/*--------------------------------*- C++ -*----------------------------------*\
| =========                 |                                                 |
| \\      /  F ield         | OpenFOAM: The Open Source CFD Toolbox           |
|  \\    /   O peration     | Version:  2306                                  |
|   \\  /    A nd           | Website:  www.openfoam.com                      |
|    \\/     M anipulation  |                                                 |
\*---------------------------------------------------------------------------*/
FoamFile
{
    version     2.0;
    format      ascii;
    arch        "LSB;label=32;scalar=64";
    class       surfaceScalarField;
    location    "0.2";
    object      phi;
}
// * * * * * * * * * * * * * * * * * * * * * * * * * * * * * * * * * * * * * //

dimensions      [0 3 -1 0 0 0 0];

oriented        oriented;

internalField   nonuniform List<scalar> 
34640
(
0.0049244
7.55987e-05
0.00478599
0.000138414
0.00463052
0.000155467
0.00447385
0.000156669
0.00431583
0.000158023
0.00415467
0.000161162
0.00399075
0.00016392
0.00382542
0.00016533
0.00366031
0.000165105
0.00349681
0.000163497
0.00333583
0.000160981
0.00317797
0.000157867
0.00302375
0.000154218
0.00287376
0.000149992
0.00272862
0.000145136
0.00258899
0.000139631
0.00245555
0.000133441
0.0023289
0.00012665
0.00220941
0.00011949
0.00209747
0.000111938
0.0019934
0.000104075
0.00189739
9.6009e-05
0.00180952
8.78645e-05
0.00172975
7.97701e-05
0.0016579
7.18529e-05
0.00159367
6.42324e-05
0.00153665
5.70126e-05
0.00148638
5.02788e-05
0.00144228
4.4093e-05
0.00140379
3.8495e-05
0.00137029
3.35013e-05
0.00134118
2.91091e-05
0.00131588
2.52978e-05
0.00129384
2.20348e-05
0.00127457
1.92774e-05
0.00125759
1.69775e-05
0.00124251
1.50799e-05
0.00122899
1.35212e-05
0.00121674
1.22512e-05
0.00120551
1.12299e-05
0.00119509
1.04202e-05
0.0011853
9.78687e-06
0.001176
9.29725e-06
0.00116708
8.92228e-06
0.00115844
8.63717e-06
0.00115002
8.42133e-06
0.00114176
8.25793e-06
0.00113363
8.1334e-06
0.00112559
8.0369e-06
0.00111763
7.95991e-06
0.00110974
7.89585e-06
0.0011019
7.83977e-06
0.00109411
7.78808e-06
0.00108637
7.73827e-06
0.00107868
7.68871e-06
0.00107104
7.63843e-06
0.00106346
7.587e-06
0.00105592
7.53438e-06
0.00104844
7.48078e-06
0.00104102
7.42664e-06
0.00103364
7.37254e-06
0.00102632
7.3191e-06
0.00101906
7.26703e-06
0.00101184
7.21704e-06
0.00100467
7.16983e-06
0.000997544
7.12608e-06
0.000990458
7.08647e-06
0.000983406
7.0516e-06
0.000976384
7.02208e-06
0.000969386
6.99843e-06
0.000962404
6.98116e-06
0.000955434
6.97073e-06
0.000948466
6.96755e-06
0.000941494
6.97204e-06
0.000934509
6.98462e-06
0.000927504
7.0057e-06
0.000920468
7.03566e-06
0.000913393
7.07489e-06
0.000906269
7.12375e-06
0.000899087
7.18261e-06
0.000891835
7.25181e-06
0.000884503
7.33174e-06
0.000877081
7.42274e-06
0.000869555
7.5252e-06
0.000861916
7.63948e-06
0.00085415
7.76597e-06
0.000846245
7.90505e-06
0.000838188
8.05712e-06
0.000829965
8.22257e-06
0.000821563
8.40182e-06
0.000812968
8.59525e-06
0.000804165
8.80328e-06
0.000795138
9.0263e-06
0.000785874
9.26469e-06
0.000776355
9.51882e-06
0.000766566
9.78903e-06
0.00075649
1.00756e-05
0.000746111
1.03789e-05
0.000735412
1.06991e-05
0.000724376
1.10362e-05
0.000712985
1.13905e-05
0.000701224
1.17619e-05
0.000689073
1.21501e-05
0.000676518
1.2555e-05
0.000663542
1.2976e-05
0.00065013
1.34128e-05
0.000636265
1.38645e-05
0.000621935
1.43301e-05
0.000607127
1.48082e-05
0.000591829
1.52973e-05
0.000576034
1.57953e-05
0.000559734
1.62999e-05
0.000542926
1.68086e-05
0.000525608
1.73179e-05
0.000507783
1.78241e-05
0.00048946
1.8323e-05
0.000470651
1.88098e-05
0.000451372
1.92791e-05
0.000431646
1.9725e-05
0.000411505
2.01411e-05
0.000390985
2.05204e-05
0.000370129
2.08556e-05
0.00034899
2.11391e-05
0.000327627
2.13632e-05
0.000306107
2.15202e-05
0.000284504
2.16026e-05
0.0002629
2.16039e-05
0.000241382
2.15181e-05
0.000220042
2.13406e-05
0.000198973
2.10683e-05
0.000178274
2.06995e-05
0.00015804
2.02342e-05
0.000138366
1.96737e-05
0.000119346
1.90201e-05
0.00010107
1.82759e-05
8.36274e-05
1.74427e-05
6.71068e-05
1.65206e-05
5.15973e-05
1.55095e-05
3.71863e-05
1.4411e-05
2.39534e-05
1.32328e-05
1.19612e-05
1.19922e-05
1.23911e-06
1.07221e-05
-8.23395e-06
9.47306e-06
-1.65093e-05
8.2753e-06
-2.36717e-05
7.16245e-06
-2.98019e-05
6.13018e-06
-3.49428e-05
5.14094e-06
-3.90912e-05
4.1484e-06
-4.22175e-05
3.12628e-06
-4.43339e-05
2.1164e-06
-4.55526e-05
1.21869e-06
-4.60715e-05
5.18975e-07
-4.60731e-05
1.56209e-09
-4.5639e-05
-4.34067e-07
-4.47537e-05
-8.85366e-07
-4.33443e-05
-1.40931e-06
-4.12688e-05
-2.07555e-06
-3.82148e-05
-3.05401e-06
-3.39459e-05
-4.26886e-06
-5.27404e-06
-2.86718e-05
0.00503752
3.80749e-05
0.0050774
9.85348e-05
0.00509715
0.00013572
0.00510102
0.000152795
0.00509795
0.000161096
0.00509063
0.000168478
0.0050778
0.000176757
0.00505833
0.000184797
0.00503218
0.000191259
0.005
0.000195672
0.00496268
0.000198301
0.00492096
0.000199591
0.00487537
0.000199808
0.00482632
0.000199042
0.00477418
0.000197272
0.00471935
0.000194458
0.0046622
0.000190593
0.00460311
0.000185743
0.00454259
0.000180008
0.00448107
0.000173463
0.00441894
0.000166199
0.00435662
0.000158337
0.00429446
0.000150019
0.00423283
0.000141402
0.00417204
0.000132644
0.00411237
0.000123903
0.00405406
0.000115321
0.00399731
0.000107026
0.00394228
9.91248e-05
0.00388908
9.16989e-05
0.00383777
8.48046e-05
0.00378841
7.84762e-05
0.00374098
7.27244e-05
0.00369547
6.75443e-05
0.00365183
6.29135e-05
0.00361
5.88114e-05
0.00356984
5.52436e-05
0.00353131
5.20488e-05
0.00349434
4.922e-05
0.00345884
4.6733e-05
0.00342471
4.455e-05
0.00339186
4.26332e-05
0.00336021
4.09468e-05
0.00332968
3.94578e-05
0.00330018
3.81368e-05
0.00327164
3.69579e-05
0.003244
3.58992e-05
0.00321719
3.49415e-05
0.00319116
3.40691e-05
0.00316585
3.32684e-05
0.00314122
3.25285e-05
0.00311722
3.18401e-05
0.00309381
3.11962e-05
0.00307096
3.05907e-05
0.00304863
3.00193e-05
0.00302679
2.94784e-05
0.00300541
2.89653e-05
0.00298446
2.84782e-05
0.00296393
2.80155e-05
0.00294378
2.75765e-05
0.00292399
2.71604e-05
0.00290454
2.6767e-05
0.00288541
2.63961e-05
0.00286658
2.60478e-05
0.00284803
2.57222e-05
0.00282974
2.54197e-05
0.00281168
2.51406e-05
0.00279385
2.48853e-05
0.00277622
2.46543e-05
0.00275877
2.44481e-05
0.00274148
2.42671e-05
0.00272434
2.41117e-05
0.00270733
2.39825e-05
0.00269042
2.38801e-05
0.0026736
2.38051e-05
0.00265684
2.37582e-05
0.00264014
2.37401e-05
0.00262346
2.37516e-05
0.00260679
2.37935e-05
0.00259011
2.38666e-05
0.00257339
2.39718e-05
0.00255661
2.41101e-05
0.00253975
2.42824e-05
0.00252279
2.44897e-05
0.00250569
2.47333e-05
0.00248845
2.50142e-05
0.00247102
2.53337e-05
0.00245338
2.56931e-05
0.00243551
2.60938e-05
0.00241737
2.65372e-05
0.00239894
2.70248e-05
0.00238019
2.75582e-05
0.00236108
2.8139e-05
0.00234157
2.87688e-05
0.00232164
2.94493e-05
0.00230125
3.01824e-05
0.00228035
3.09698e-05
0.00225892
3.18132e-05
0.0022369
3.27145e-05
0.00221427
3.36754e-05
0.00219096
3.46975e-05
0.00216694
3.57826e-05
0.00214216
3.6932e-05
0.00211656
3.8147e-05
0.00209011
3.9428e-05
0.00206275
4.0777e-05
0.00203442
4.21949e-05
0.00200507
4.36816e-05
0.00197464
4.52367e-05
0.00194307
4.68597e-05
0.00191032
4.85496e-05
0.00187632
5.03046e-05
0.001841
5.21219e-05
0.00180432
5.39976e-05
0.00176622
5.59268e-05
0.00172664
5.79034e-05
0.00168553
5.99197e-05
0.00164284
6.19666e-05
0.00159853
6.40331e-05
0.00155257
6.61065e-05
0.00150492
6.81717e-05
0.00145556
7.02113e-05
0.00140449
7.22056e-05
0.00135173
7.4132e-05
0.00129728
7.59654e-05
0.00124121
7.76776e-05
0.00118357
7.92378e-05
0.00112448
8.06119e-05
0.00106406
8.17636e-05
0.00100247
8.26539e-05
0.000939927
8.32418e-05
0.000876676
8.34857e-05
0.000813006
8.33437e-05
0.00074925
8.2776e-05
0.000685779
8.17466e-05
0.000622995
8.02262e-05
0.000561321
7.81946e-05
0.000501185
7.56461e-05
0.000443002
7.25939e-05
0.000387161
6.9074e-05
0.000334006
6.51465e-05
0.000283833
6.0895e-05
0.000236884
5.64228e-05
0.000193338
5.18209e-05
0.000153333
4.71675e-05
0.00011695
4.25137e-05
8.41567e-05
3.79338e-05
5.50491e-05
3.3256e-05
2.96514e-05
2.8524e-05
7.80543e-06
2.39624e-05
-1.07048e-05
1.97289e-05
-2.6288e-05
1.61021e-05
-3.91673e-05
1.28809e-05
-4.94679e-05
9.8665e-06
-5.73011e-05
6.94793e-06
-6.27824e-05
4.07198e-06
-6.59594e-05
1.1015e-06
-6.66156e-05
-2.39776e-06
-6.46853e-05
-6.19922e-06
-9.23431e-06
-6.0725e-05
0.00501445
2.36272e-05
0.00504447
6.85094e-05
0.00507418
0.000106011
0.00509859
0.000128388
0.00511781
0.000141877
0.00513503
0.000151254
0.00515196
0.000159827
0.00516818
0.000168575
0.00518272
0.000176723
0.00519492
0.000183472
0.00520465
0.000188571
0.00521208
0.000192157
0.0052174
0.000194494
0.00522066
0.000195783
0.00522183
0.000196101
0.00522084
0.000195443
0.00521764
0.000193793
0.00521223
0.000191158
0.00520467
0.000187565
0.00519503
0.000183106
0.00518337
0.000177853
0.00516981
0.000171903
0.00515445
0.000165374
0.00513745
0.000158402
0.00511897
0.000151126
0.00509918
0.00014369
0.00507827
0.000136231
0.00505642
0.000128876
0.00503381
0.000121734
0.00501061
0.000114898
0.00498698
0.000108439
0.00496305
0.000102407
0.00493894
9.68321e-05
0.00491476
9.17274e-05
0.00489058
8.70929e-05
0.00486647
8.29179e-05
0.00484254
7.91756e-05
0.00481878
7.58111e-05
0.00479521
7.27903e-05
0.00477185
7.00885e-05
0.00474872
6.76782e-05
0.00472583
6.55292e-05
0.00470316
6.36103e-05
0.00468073
6.18916e-05
0.00465852
6.03458e-05
0.00463653
5.89484e-05
0.00461475
5.7678e-05
0.00459318
5.65161e-05
0.0045718
5.54467e-05
0.00455061
5.44564e-05
0.00452961
5.35339e-05
0.00450878
5.26697e-05
0.00448812
5.18563e-05
0.00446762
5.10875e-05
0.00444728
5.03584e-05
0.00442709
4.96654e-05
0.00440705
4.90057e-05
0.00438715
4.83771e-05
0.00436739
4.77783e-05
0.00434776
4.72084e-05
0.00432825
4.6667e-05
0.00430887
4.61538e-05
0.00428959
4.56692e-05
0.00427043
4.52133e-05
0.00425136
4.47868e-05
0.00423239
4.43904e-05
0.00421351
4.40248e-05
0.0041947
4.36911e-05
0.00417597
4.33901e-05
0.00415729
4.31231e-05
0.00413867
4.28912e-05
0.00412008
4.26951e-05
0.00410153
4.2536e-05
0.004083
4.24152e-05
0.00406447
4.23342e-05
0.00404593
4.22944e-05
0.00402737
4.22972e-05
0.00400878
4.23444e-05
0.00399014
4.24373e-05
0.00397143
4.2578e-05
0.00395263
4.2768e-05
0.00393373
4.30094e-05
0.00391471
4.33042e-05
0.00389554
4.36545e-05
0.00387621
4.40626e-05
0.0038567
4.45307e-05
0.00383697
4.50615e-05
0.00381701
4.56575e-05
0.00379678
4.63214e-05
0.00377626
4.70562e-05
0.00375542
4.7865e-05
0.00373423
4.87509e-05
0.00371265
4.97172e-05
0.00369065
5.07675e-05
0.00366819
5.19054e-05
0.00364524
5.31347e-05
0.00362175
5.44592e-05
0.00359768
5.58831e-05
0.00357299
5.74104e-05
0.00354762
5.90453e-05
0.00352152
6.07923e-05
0.00349465
6.26556e-05
0.00346694
6.46395e-05
0.00343834
6.67484e-05
0.00340878
6.89862e-05
0.0033782
7.13577e-05
0.00334653
7.38672e-05
0.00331369
7.65182e-05
0.00327961
7.9314e-05
0.00324422
8.2257e-05
0.00320741
8.53509e-05
0.00316912
8.85977e-05
0.00312925
9.19981e-05
0.00308769
9.5552e-05
0.00304436
9.92583e-05
0.00299915
0.000103114
0.00295195
0.000107116
0.00290266
0.000111256
0.00285117
0.000115528
0.00279736
0.000119919
0.00274111
0.000124415
0.00268232
0.000129
0.00262088
0.000133652
0.00255666
0.000138346
0.00248958
0.000143051
0.00241952
0.000147732
0.00234641
0.000152349
0.00227017
0.000156852
0.00219075
0.000161188
0.00210811
0.000165295
0.00202225
0.000169103
0.0019332
0.000172533
0.00184104
0.000175501
0.0017459
0.000177917
0.00164796
0.000179685
0.00154748
0.000180704
0.00144481
0.000180869
0.00134038
0.000180075
0.00123475
0.000178224
0.0011286
0.000175229
0.00102272
0.000171022
0.000918056
0.000165559
0.000815647
0.000158832
0.000716593
0.000150875
0.000621986
0.000141774
0.000532824
0.000131675
0.000449981
0.000120777
0.000373887
0.00010935
0.000304661
9.77501e-05
0.000242274
8.63492e-05
0.000186552
7.54512e-05
0.000137397
6.52576e-05
9.45011e-05
5.57765e-05
5.78474e-05
4.65202e-05
2.6882e-05
3.79134e-05
1.087e-06
2.9867e-05
-2.00804e-05
2.22689e-05
-3.68279e-05
1.43497e-05
-4.90979e-05
6.07086e-06
-1.11138e-06
-5.72208e-05
0.00500634
1.72885e-05
0.00502385
5.09992e-05
0.00504705
8.28144e-05
0.00506939
0.000106043
0.00508908
0.000122187
0.00510686
0.000133478
0.00512443
0.000142249
0.00514265
0.000150363
0.00516108
0.000158284
0.00517925
0.000165302
0.00519682
0.000171002
0.00521368
0.000175302
0.00522985
0.000178324
0.00524536
0.000180269
0.00526017
0.000181293
0.00527418
0.000181438
0.00528726
0.000180713
0.0052993
0.00017912
0.00531018
0.00017668
0.00531984
0.00017345
0.00532819
0.000169497
0.00533519
0.000164903
0.0053408
0.000159762
0.00534502
0.000154183
0.00534787
0.00014828
0.00534939
0.000142171
0.00534965
0.000135973
0.00534873
0.000129794
0.00534673
0.000123733
0.00534375
0.000117874
0.00533991
0.000112285
0.0053353
0.000107017
0.00533002
0.000102107
0.00532418
9.75739e-05
0.00531785
9.34252e-05
0.00531111
8.96535e-05
0.00530404
8.62419e-05
0.00529669
8.31692e-05
0.00528907
8.04078e-05
0.00528122
7.79323e-05
0.00527318
7.57189e-05
0.00526497
7.37436e-05
0.0052566
7.19813e-05
0.00524808
7.04071e-05
0.00523943
6.89971e-05
0.00523065
6.77298e-05
0.00522174
6.65857e-05
0.00521271
6.55475e-05
0.00520356
6.46005e-05
0.00519428
6.37319e-05
0.00518488
6.29308e-05
0.00517537
6.21882e-05
0.00516573
6.14964e-05
0.00515596
6.08495e-05
0.00514608
6.02423e-05
0.00513607
5.96712e-05
0.00512595
5.91332e-05
0.0051157
5.86262e-05
0.00510533
5.81487e-05
0.00509484
5.76999e-05
0.00508422
5.72793e-05
0.00507349
5.6887e-05
0.00506264
5.65231e-05
0.00505166
5.61883e-05
0.00504056
5.58834e-05
0.00502935
5.56094e-05
0.005018
5.53675e-05
0.00500654
5.51589e-05
0.00499494
5.49851e-05
0.00498322
5.48477e-05
0.00497136
5.47483e-05
0.00495937
5.46883e-05
0.00494723
5.46695e-05
0.00493495
5.46938e-05
0.00492252
5.47633e-05
0.00490994
5.488e-05
0.00489719
5.50464e-05
0.00488427
5.52646e-05
0.00487117
5.55371e-05
0.00485788
5.58666e-05
0.00484439
5.62558e-05
0.00483069
5.67075e-05
0.00481677
5.72247e-05
0.00480262
5.78106e-05
0.00478821
5.84687e-05
0.00477354
5.92023e-05
0.00475859
6.00152e-05
0.00474333
6.09114e-05
0.00472776
6.18949e-05
0.00471185
6.29701e-05
0.00469557
6.41417e-05
0.00467891
6.54143e-05
0.00466183
6.67932e-05
0.00464431
6.82835e-05
0.00462633
6.98909e-05
0.00460784
7.16212e-05
0.00458882
7.34804e-05
0.00456923
7.5475e-05
0.00454903
7.76114e-05
0.00452818
7.98967e-05
0.00450663
8.23377e-05
0.00448434
8.49419e-05
0.00446127
8.77166e-05
0.00443735
9.06696e-05
0.00441252
9.38088e-05
0.00438674
9.71421e-05
0.00435993
0.000100678
0.00433202
0.000104424
0.00430295
0.000108388
0.00427263
0.000112578
0.00424098
0.000117002
0.00420791
0.000121668
0.00417332
0.000126581
0.00413713
0.000131747
0.00409921
0.000137173
0.00405947
0.000142861
0.00401777
0.000148813
0.00397399
0.000155032
0.00392801
0.000161515
0.00387966
0.000168259
0.00382882
0.000175258
0.00377532
0.000182501
0.003719
0.000189975
0.00365968
0.000197662
0.00359719
0.000205538
0.00353135
0.000213574
0.00346197
0.000221733
0.00338885
0.000229973
0.0033118
0.000238241
0.00323062
0.000246474
0.00314512
0.000254601
0.00305511
0.000262537
0.00296044
0.000270175
0.00286094
0.000277418
0.00275647
0.000284149
0.00264695
0.00029023
0.00253231
0.000295511
0.00241255
0.000299834
0.00228774
0.000303028
0.00215806
0.000304913
0.00202378
0.000305304
0.00188532
0.000304017
0.00174327
0.000300882
0.00159841
0.000295731
0.00145178
0.000288403
0.0013047
0.000278764
0.00115874
0.000266734
0.00101577
0.000252314
0.000877906
0.000235618
0.000747334
0.000216921
0.00062613
0.000196655
0.000515987
0.0001754
0.000417935
0.000153829
0.000331694
0.000132761
0.000256609
0.000112998
0.000191476
9.49993e-05
0.000135029
7.87166e-05
8.68566e-05
6.25219e-05
4.63422e-05
4.65853e-05
3.17931e-05
1.34378e-05
0.00500365
1.36379e-05
0.00501435
4.03031e-05
0.00503119
6.59759e-05
0.00504934
8.78851e-05
0.00506702
0.00010451
0.00508362
0.000116874
0.00509961
0.000126267
0.00511581
0.000134164
0.00513256
0.000141531
0.00514965
0.000148212
0.00516675
0.000153905
0.00518365
0.000158394
0.0052003
0.000161681
0.00521666
0.000163902
0.00523276
0.000165198
0.00524854
0.000165657
0.00526393
0.000165324
0.00527883
0.00016422
0.00529314
0.000162372
0.00530677
0.000159822
0.00531963
0.00015663
0.00533167
0.000152868
0.00534281
0.000148616
0.00535303
0.000143966
0.0053623
0.000139013
0.00537061
0.000133855
0.005378
0.00012859
0.00538448
0.000123309
0.00539012
0.000118096
0.00539497
0.000113026
0.00539909
0.00010816
0.00540256
0.000103545
0.00540545
9.92169e-05
0.00540783
9.5196e-05
0.00540976
9.14927e-05
0.00541131
8.81059e-05
0.00541252
8.50285e-05
0.00541344
8.22488e-05
0.0054141
7.97483e-05
0.00541453
7.75058e-05
0.00541475
7.55004e-05
0.00541478
7.37116e-05
0.00541464
7.21192e-05
0.00541435
7.07028e-05
0.0054139
6.94423e-05
0.00541331
6.83191e-05
0.00541258
6.73158e-05
0.00541171
6.6417e-05
0.0054107
6.56092e-05
0.00540956
6.48806e-05
0.00540827
6.42209e-05
0.00540683
6.36215e-05
0.00540525
6.30752e-05
0.00540353
6.25758e-05
0.00540165
6.21186e-05
0.00539962
6.16995e-05
0.00539744
6.13156e-05
0.0053951
6.09647e-05
0.00539261
6.0645e-05
0.00538995
6.03557e-05
0.00538713
6.00962e-05
0.00538415
5.98663e-05
0.00538101
5.96664e-05
0.0053777
5.9497e-05
0.00537423
5.93589e-05
0.00537058
5.92533e-05
0.00536677
5.91813e-05
0.00536278
5.91445e-05
0.00535862
5.91444e-05
0.00535429
5.91827e-05
0.00534978
5.92614e-05
0.00534508
5.93823e-05
0.0053402
5.95474e-05
0.00533514
5.9759e-05
0.00532988
6.00197e-05
0.00532443
6.03319e-05
0.00531878
6.06983e-05
0.00531292
6.11218e-05
0.00530685
6.16054e-05
0.00530057
6.21523e-05
0.00529406
6.27658e-05
0.00528731
6.34495e-05
0.00528033
6.4207e-05
0.0052731
6.50423e-05
0.00526561
6.59595e-05
0.00525785
6.69631e-05
0.00524981
6.80577e-05
0.00524147
6.92481e-05
0.00523283
7.05396e-05
0.00522386
7.19376e-05
0.00521455
7.34478e-05
0.00520489
7.50764e-05
0.00519485
7.68297e-05
0.00518442
7.87146e-05
0.00517357
8.0738e-05
0.00516229
8.29075e-05
0.00515054
8.52309e-05
0.0051383
8.77164e-05
0.00512554
9.03727e-05
0.00511222
9.32088e-05
0.00509833
9.6234e-05
0.00508381
9.94582e-05
0.00506864
0.000102891
0.00505276
0.000106545
0.00503614
0.000110428
0.00501873
0.000114554
0.00500047
0.000118934
0.00498132
0.000123579
0.0049612
0.000128502
0.00494007
0.000133715
0.00491784
0.000139231
0.00489444
0.000145062
0.0048698
0.00015122
0.00484383
0.000157717
0.00481644
0.000164566
0.00478753
0.000171776
0.00475698
0.000179358
0.00472469
0.00018732
0.00469054
0.000195671
0.00465438
0.000204416
0.00461608
0.000213558
0.00457548
0.000223098
0.00453242
0.000233034
0.00448673
0.00024336
0.0044382
0.000254064
0.00438664
0.00026513
0.00433184
0.000276536
0.00427356
0.000288252
0.00421156
0.000300241
0.00414558
0.000312454
0.00407535
0.000324833
0.00400058
0.000337305
0.00392097
0.000349788
0.0038362
0.000362185
0.00374597
0.000374386
0.00364993
0.000386262
0.00354778
0.000397664
0.00343919
0.000408425
0.00332386
0.00041836
0.00320151
0.000427263
0.00307191
0.000434906
0.0029349
0.000441018
0.00279042
0.000445364
0.00263848
0.000447677
0.00247924
0.000447641
0.00231306
0.000444947
0.0021405
0.000439295
0.0019624
0.000430409
0.00177995
0.000418071
0.00159476
0.000402111
0.00140901
0.000382405
0.00122548
0.000358926
0.00104752
0.000331797
0.000878872
0.000301404
0.000723356
0.000268515
0.000584072
0.000234283
0.000462835
0.000199954
0.000358558
0.000166799
0.000269239
0.000135904
0.00010814
0.000192892
0.00500249
1.11484e-05
0.00500982
3.29722e-05
0.00502171
5.40911e-05
0.00503621
7.33811e-05
0.00505142
8.93028e-05
0.00506648
0.000101814
0.00508114
0.000111608
0.00509573
0.000119565
0.00511075
0.000126516
0.00512619
0.000132767
0.00514189
0.000138211
0.00515762
0.000142661
0.00517324
0.000146059
0.00518869
0.000148449
0.00520396
0.000149931
0.00521902
0.000150599
0.00523382
0.000150521
0.0052483
0.000149742
0.00526237
0.000148297
0.00527597
0.000146226
0.00528902
0.000143581
0.00530146
0.000140424
0.00531325
0.000136828
0.00532435
0.000132868
0.00533473
0.000128628
0.0053444
0.000124191
0.00535335
0.00011964
0.0053616
0.000115052
0.0053692
0.000110502
0.00537617
0.000106052
0.00538258
0.000101756
0.00538846
9.766e-05
0.00539389
9.37947e-05
0.0053989
9.01824e-05
0.00540356
8.68355e-05
0.0054079
8.3758e-05
0.00541198
8.0948e-05
0.00541583
7.83985e-05
0.00541949
7.60974e-05
0.00542296
7.40284e-05
0.00542629
7.21743e-05
0.00542948
7.05179e-05
0.00543256
6.90424e-05
0.00543553
6.7731e-05
0.00543841
6.65671e-05
0.00544119
6.55347e-05
0.00544389
6.46188e-05
0.0054465
6.38058e-05
0.00544903
6.30834e-05
0.00545146
6.24409e-05
0.00545382
6.1869e-05
0.00545608
6.13594e-05
0.00545825
6.09054e-05
0.00546032
6.05012e-05
0.0054623
6.01421e-05
0.00546418
5.98241e-05
0.00546595
5.95443e-05
0.00546761
5.93004e-05
0.00546917
5.90906e-05
0.00547061
5.89139e-05
0.00547193
5.87697e-05
0.00547314
5.86577e-05
0.00547423
5.85782e-05
0.0054752
5.85317e-05
0.00547604
5.85189e-05
0.00547675
5.8541e-05
0.00547733
5.85991e-05
0.00547778
5.86948e-05
0.00547809
5.88297e-05
0.00547827
5.90057e-05
0.00547831
5.92245e-05
0.0054782
5.94885e-05
0.00547795
5.97997e-05
0.00547755
6.01608e-05
0.00547699
6.05742e-05
0.00547628
6.10428e-05
0.00547541
6.15696e-05
0.00547438
6.21577e-05
0.00547317
6.28105e-05
0.00547179
6.35314e-05
0.00547023
6.43241e-05
0.00546849
6.51927e-05
0.00546656
6.61412e-05
0.00546442
6.71741e-05
0.00546209
6.82961e-05
0.00545954
6.95121e-05
0.00545677
7.08273e-05
0.00545377
7.22472e-05
0.00545053
7.37777e-05
0.00544704
7.5425e-05
0.0054433
7.71957e-05
0.00543928
7.90966e-05
0.00543497
8.1135e-05
0.00543037
8.33187e-05
0.00542545
8.56559e-05
0.0054202
8.81551e-05
0.00541461
9.08253e-05
0.00540865
9.36762e-05
0.0054023
9.67176e-05
0.00539555
9.99603e-05
0.00538837
0.000103415
0.00538073
0.000107094
0.00537262
0.000111008
0.00536399
0.000115172
0.00535482
0.000119597
0.00534508
0.000124298
0.00533472
0.000129288
0.00532372
0.000134584
0.00531202
0.0001402
0.00529958
0.000146152
0.00528636
0.000152456
0.00527229
0.000159129
0.00525732
0.000166188
0.00524139
0.000173649
0.00522443
0.00018153
0.00520636
0.000189848
0.00518709
0.000198618
0.00516656
0.000207858
0.00514464
0.000217583
0.00512125
0.000227807
0.00509627
0.000238543
0.00506957
0.000249802
0.00504101
0.000261593
0.00501044
0.000273922
0.00497771
0.000286793
0.00494264
0.000300203
0.00490503
0.000314147
0.00486467
0.000328612
0.00482133
0.000343579
0.00477477
0.00035902
0.0047247
0.0003749
0.00467083
0.00039117
0.00461285
0.000407774
0.00455039
0.000424639
0.0044831
0.00044168
0.00441057
0.000458793
0.00433238
0.000475858
0.00424807
0.000492732
0.00415718
0.00050925
0.00405922
0.000525223
0.00395369
0.000540432
0.00384008
0.000554631
0.00371789
0.000567559
0.00358664
0.00057892
0.00344591
0.000588375
0.00329529
0.000595561
0.00313451
0.000600081
0.00296343
0.000601484
0.00278212
0.000599386
0.00259086
0.000593372
0.0023903
0.000582966
0.00218148
0.000567743
0.00196591
0.000547363
0.0017457
0.000521614
0.00152383
0.000490389
0.00130437
0.000453739
0.0010924
0.000411932
0.00089352
0.000365675
0.000713001
0.000316423
0.000266427
0.000554714
0.00500185
9.29993e-06
0.00500728
2.7539e-05
0.00501604
4.53327e-05
0.00502755
6.18691e-05
0.00504038
7.64709e-05
0.00505372
8.84763e-05
0.00506711
9.82156e-05
0.00508051
0.000106166
0.00509416
0.000112873
0.00510819
0.000118735
0.00512255
0.000123848
0.00513708
0.000128131
0.00515162
0.000131515
0.00516608
0.000133991
0.0051804
0.00013561
0.00519455
0.000136451
0.00520849
0.000136585
0.00522216
0.000136071
0.0052355
0.000134954
0.00524845
0.000133274
0.00526095
0.00013108
0.00527295
0.000128425
0.00528441
0.000125371
0.00529529
0.000121987
0.00530558
0.000118341
0.00531526
0.000114507
0.00532435
0.000110554
0.00533285
0.000106552
0.00534079
0.000102561
0.0053482
9.8639e-05
0.00535512
9.4833e-05
0.0053616
9.11826e-05
0.00536768
8.77183e-05
0.0053734
8.44621e-05
0.00537881
8.14277e-05
0.00538394
7.86224e-05
0.00538884
7.60475e-05
0.00539354
7.36993e-05
0.00539807
7.15698e-05
0.00540245
6.96475e-05
0.00540671
6.79187e-05
0.00541085
6.63695e-05
0.00541491
6.49859e-05
0.00541889
6.37542e-05
0.00542279
6.26604e-05
0.00542664
6.16911e-05
0.00543042
6.08334e-05
0.00543415
6.00755e-05
0.00543783
5.94065e-05
0.00544146
5.88167e-05
0.00544503
5.82975e-05
0.00544854
5.78417e-05
0.00545201
5.74429e-05
0.00545541
5.70956e-05
0.00545876
5.67953e-05
0.00546205
5.65385e-05
0.00546527
5.63221e-05
0.00546842
5.61439e-05
0.00547151
5.60022e-05
0.00547453
5.5896e-05
0.00547748
5.58246e-05
0.00548035
5.57877e-05
0.00548314
5.57856e-05
0.00548585
5.58186e-05
0.00548848
5.58876e-05
0.00549103
5.59936e-05
0.00549349
5.61379e-05
0.00549586
5.63219e-05
0.00549815
5.65472e-05
0.00550034
5.68158e-05
0.00550243
5.71297e-05
0.00550443
5.74911e-05
0.00550633
5.79023e-05
0.00550812
5.83659e-05
0.00550981
5.88846e-05
0.00551139
5.94615e-05
0.00551286
6.00995e-05
0.00551422
6.0802e-05
0.00551546
6.15726e-05
0.00551657
6.24149e-05
0.00551756
6.33329e-05
0.00551842
6.43308e-05
0.00551915
6.5413e-05
0.00551974
6.65843e-05
0.00552019
6.78495e-05
0.00552049
6.9214e-05
0.00552063
7.06834e-05
0.00552061
7.22635e-05
0.00552043
7.39606e-05
0.00552008
7.57814e-05
0.00551954
7.77329e-05
0.00551881
7.98225e-05
0.00551789
8.20581e-05
0.00551676
8.44479e-05
0.00551542
8.70007e-05
0.00551384
8.97259e-05
0.00551204
9.26332e-05
0.00550998
9.57329e-05
0.00550766
9.90359e-05
0.00550507
0.000102554
0.00550218
0.000106298
0.005499
0.000110283
0.00549548
0.00011452
0.00549163
0.000119024
0.00548742
0.000123809
0.00548283
0.000128892
0.00547783
0.000134287
0.0054724
0.000140012
0.00546651
0.000146085
0.00546014
0.000152522
0.00545326
0.000159344
0.00544582
0.000166568
0.00543779
0.000174216
0.00542913
0.000182308
0.00541979
0.000190864
0.00540974
0.000199906
0.0053989
0.000209455
0.00538722
0.000219533
0.00537465
0.00023016
0.0053611
0.000241359
0.00534649
0.000253148
0.00533074
0.000265548
0.00531376
0.000278577
0.00529543
0.000292252
0.00527564
0.000306587
0.00525424
0.000321594
0.00523111
0.00033728
0.00520607
0.00035365
0.00517895
0.000370703
0.00514954
0.000388433
0.00511761
0.000406824
0.00508293
0.000425857
0.0050452
0.000445498
0.00500413
0.000465707
0.00495938
0.00048643
0.00491058
0.000507598
0.00485731
0.000529125
0.00479913
0.000550911
0.00473555
0.000572829
0.00466604
0.000594733
0.00459003
0.000616448
0.00450688
0.000637774
0.00441596
0.00065848
0.00431658
0.000678302
0.00420802
0.000696932
0.00408956
0.000714023
0.00396046
0.000729178
0.00381999
0.000741957
0.00366748
0.000751897
0.00350236
0.000758487
0.00332417
0.000761162
0.0031326
0.000759308
0.0029277
0.000752264
0.00270979
0.000739527
0.00247973
0.000720449
0.00223904
0.000694426
0.00198992
0.000661058
0.00173542
0.000620177
0.00147995
0.000571889
0.000516681
0.0012297
0.00500144
7.86104e-06
0.00500568
2.33026e-05
0.00501255
3.84551e-05
0.00502174
5.26814e-05
0.00503256
6.56467e-05
0.00504425
7.67951e-05
0.00505635
8.61119e-05
0.00506867
9.38458e-05
0.00508122
0.000100325
0.00509409
0.000105865
0.00510729
0.000110646
0.00512073
0.000114693
0.00513428
0.000117968
0.00514782
0.000120446
0.00516129
0.000122145
0.00517462
0.000123119
0.00518777
0.000123431
0.0052007
0.000123142
0.00521336
0.000122301
0.00522568
0.000120953
0.00523761
0.000119144
0.00524912
0.00011692
0.00526015
0.000114335
0.00527069
0.000111448
0.00528072
0.000108319
0.00529021
0.00010501
0.00529918
0.000101582
0.00530764
9.80945e-05
0.0053156
9.46006e-05
0.00532309
9.11496e-05
0.00533014
8.77839e-05
0.00533679
8.4539e-05
0.00534306
8.14434e-05
0.005349
7.85181e-05
0.00535465
7.57779e-05
0.00536004
7.32315e-05
0.00536521
7.08824e-05
0.00537018
6.87295e-05
0.00537498
6.67678e-05
0.00537964
6.49893e-05
0.00538417
6.33839e-05
0.0053886
6.19405e-05
0.00539294
6.06478e-05
0.0053972
5.94943e-05
0.00540139
5.84685e-05
0.00540553
5.75591e-05
0.0054096
5.67551e-05
0.00541363
5.60464e-05
0.00541762
5.54234e-05
0.00542155
5.48775e-05
0.00542545
5.44011e-05
0.00542931
5.39875e-05
0.00543312
5.36309e-05
0.00543689
5.33264e-05
0.00544061
5.30698e-05
0.00544429
5.28577e-05
0.00544793
5.26873e-05
0.00545152
5.25566e-05
0.00545505
5.24639e-05
0.00545854
5.24082e-05
0.00546198
5.23888e-05
0.00546536
5.24056e-05
0.00546869
5.24586e-05
0.00547196
5.25485e-05
0.00547517
5.26758e-05
0.00547832
5.28417e-05
0.00548141
5.30474e-05
0.00548444
5.32944e-05
0.0054874
5.35845e-05
0.0054903
5.39193e-05
0.00549313
5.43012e-05
0.00549588
5.47323e-05
0.00549857
5.5215e-05
0.00550119
5.57521e-05
0.00550372
5.63462e-05
0.00550619
5.70005e-05
0.00550857
5.77182e-05
0.00551087
5.85026e-05
0.00551308
5.93575e-05
0.00551521
6.02866e-05
0.00551725
6.12942e-05
0.00551919
6.23844e-05
0.00552105
6.35619e-05
0.0055228
6.48316e-05
0.00552445
6.61987e-05
0.00552599
6.76686e-05
0.00552743
6.92471e-05
0.00552875
7.09404e-05
0.00552996
7.2755e-05
0.00553104
7.46977e-05
0.005532
7.67758e-05
0.00553283
7.89972e-05
0.00553351
8.13698e-05
0.00553406
8.39024e-05
0.00553446
8.66041e-05
0.0055347
8.94846e-05
0.00553478
9.2554e-05
0.00553469
9.58231e-05
0.00553442
9.93032e-05
0.00553397
0.000103006
0.00553332
0.000106945
0.00553247
0.000111133
0.0055314
0.000115584
0.00553012
0.000120312
0.00552859
0.000125333
0.00552682
0.000130664
0.00552479
0.000136321
0.00552248
0.000142322
0.00551987
0.000148686
0.00551697
0.000155431
0.00551373
0.000162579
0.00551015
0.00017015
0.0055062
0.000178166
0.00550186
0.000186649
0.0054971
0.000195622
0.0054919
0.00020511
0.00548622
0.000215136
0.00548002
0.000225725
0.00547328
0.000236903
0.00546594
0.000248695
0.00545797
0.000261125
0.0054493
0.00027422
0.00543987
0.000288003
0.00542962
0.000302499
0.00541848
0.000317731
0.00540635
0.00033372
0.00539315
0.000350485
0.00537875
0.000368043
0.00536305
0.000386407
0.0053459
0.000405587
0.00532713
0.000425588
0.00530658
0.00044641
0.00528403
0.000468044
0.00525926
0.000490476
0.00523201
0.000513682
0.00520198
0.000537626
0.00516885
0.000562262
0.00513223
0.000587525
0.00509172
0.000613339
0.00504685
0.000639603
0.0049971
0.000666199
0.00494189
0.000692981
0.0048806
0.000719777
0.00481252
0.000746377
0.00473691
0.000772543
0.00465295
0.000797982
0.00455976