/*--------------------------------*- C++ -*----------------------------------*\
| =========                 |                                                 |
| \\      /  F ield         | OpenFOAM: The Open Source CFD Toolbox           |
|  \\    /   O peration     | Version:  2306                                  |
|   \\  /    A nd           | Website:  www.openfoam.com                      |
|    \\/     M anipulation  |                                                 |
\*---------------------------------------------------------------------------*/
FoamFile
{
    version     2.0;
    format      ascii;
    arch        "LSB;label=32;scalar=64";
    class       volVectorField;
    location    "0.2";
    object      U;
}
// * * * * * * * * * * * * * * * * * * * * * * * * * * * * * * * * * * * * * //

dimensions      [0 1 -1 0 0 0 0];

internalField   nonuniform List<vector> 
17600
(
(9.80708 0.0850068 0)
(9.62283 0.1805 0)
(9.41196 0.217949 0)
(9.14628 0.225578 0)
(8.83439 0.225099 0)
(8.49836 0.225385 0)
(8.15616 0.226736 0)
(7.81672 0.227128 0)
(7.48269 0.225219 0)
(7.15415 0.220818 0)
(6.83067 0.214448 0)
(6.51243 0.206753 0)
(6.20026 0.19816 0)
(5.89551 0.188852 0)
(5.59967 0.178847 0)
(5.31426 0.168129 0)
(5.0406 0.156697 0)
(4.78013 0.144613 0)
(4.53373 0.131894 0)
(4.30221 0.118628 0)
(4.08621 0.104997 0)
(3.88623 0.0912586 0)
(3.70253 0.0777043 0)
(3.53515 0.0646281 0)
(3.38385 0.0522996 0)
(3.24814 0.0409448 0)
(3.12728 0.0307331 0)
(3.02038 0.0217705 0)
(2.92637 0.0140996 0)
(2.84412 0.00770585 0)
(2.77242 0.00252875 0)
(2.71006 -0.00152584 0)
(2.65588 -0.00457186 0)
(2.60874 -0.00673384 0)
(2.56758 -0.00813434 0)
(2.53147 -0.00889522 0)
(2.49952 -0.00912604 0)
(2.47101 -0.00895769 0)
(2.44531 -0.00851133 0)
(2.42189 -0.00788086 0)
(2.4003 -0.00713539 0)
(2.38013 -0.00632611 0)
(2.36109 -0.00549144 0)
(2.3429 -0.00465991 0)
(2.32537 -0.00385217 0)
(2.30833 -0.00308264 0)
(2.29167 -0.00236094 0)
(2.27529 -0.00169305 0)
(2.25913 -0.00108215 0)
(2.24314 -0.000529171 0)
(2.22729 -3.33284e-05 0)
(2.21156 0.000407542 0)
(2.19594 0.000796594 0)
(2.18042 0.00113765 0)
(2.165 0.0014349 0)
(2.14967 0.00169272 0)
(2.13445 0.00191546 0)
(2.11933 0.00210735 0)
(2.10432 0.00227239 0)
(2.08941 0.00241434 0)
(2.07461 0.00253663 0)
(2.05992 0.0026424 0)
(2.04534 0.00273449 0)
(2.03086 0.00281544 0)
(2.01647 0.00288751 0)
(2.00218 0.00295267 0)
(1.98797 0.0030127 0)
(1.97384 0.00306911 0)
(1.95977 0.00312325 0)
(1.94575 0.00317625 0)
(1.93177 0.00322906 0)
(1.91782 0.00328249 0)
(1.90389 0.00333722 0)
(1.88995 0.00339392 0)
(1.876 0.00345326 0)
(1.86201 0.00351583 0)
(1.84798 0.00358219 0)
(1.83387 0.0036528 0)
(1.81967 0.00372808 0)
(1.80537 0.0038084 0)
(1.79094 0.00389409 0)
(1.77636 0.00398545 0)
(1.76161 0.00408275 0)
(1.74667 0.00418624 0)
(1.73151 0.00429613 0)
(1.71611 0.00441263 0)
(1.70045 0.0045359 0)
(1.68449 0.00466608 0)
(1.66821 0.00480331 0)
(1.6516 0.00494768 0)
(1.63461 0.00509922 0)
(1.61721 0.00525795 0)
(1.59939 0.00542383 0)
(1.58111 0.00559677 0)
(1.56233 0.00577659 0)
(1.54303 0.00596306 0)
(1.52317 0.00615584 0)
(1.50273 0.00635448 0)
(1.48166 0.00655844 0)
(1.45993 0.00676698 0)
(1.43751 0.00697924 0)
(1.41437 0.00719412 0)
(1.39046 0.00741027 0)
(1.36577 0.00762612 0)
(1.34025 0.00783983 0)
(1.31387 0.00804994 0)
(1.2866 0.00825495 0)
(1.25841 0.00845298 0)
(1.22928 0.0086418 0)
(1.19918 0.00881889 0)
(1.1681 0.00898161 0)
(1.13601 0.00912688 0)
(1.10291 0.00925099 0)
(1.06878 0.0093498 0)
(1.03365 0.0094188 0)
(0.9975 0.0094532 0)
(0.960367 0.00944803 0)
(0.922276 0.00939829 0)
(0.883268 0.00929911 0)
(0.843395 0.00914594 0)
(0.802723 0.00893482 0)
(0.761334 0.0086627 0)
(0.719324 0.00832784 0)
(0.676802 0.00793027 0)
(0.633895 0.00747225 0)
(0.590746 0.00695885 0)
(0.54751 0.0063984 0)
(0.504354 0.00580291 0)
(0.461459 0.00518822 0)
(0.41901 0.00457378 0)
(0.3772 0.00398173 0)
(0.336221 0.00343507 0)
(0.296265 0.00295477 0)
(0.25752 0.00255599 0)
(0.220171 0.00224391 0)
(0.184397 0.00200981 0)
(0.150377 0.0018284 0)
(0.118291 0.00165834 0)
(0.0883182 0.00144762 0)
(0.0606298 0.00114518 0)
(0.0353689 0.000717036 0)
(0.0126217 0.000164938 0)
(-0.00757406 -0.000464028 0)
(-0.0253007 -0.00111988 0)
(-0.0407351 -0.0016999 0)
(-0.0540242 -0.00212967 0)
(-0.0653033 -0.00239391 0)
(-0.0746006 -0.00259123 0)
(-0.0818589 -0.00280421 0)
(-0.0870596 -0.00301695 0)
(-0.0903276 -0.00315068 0)
(-0.092006 -0.00310122 0)
(-0.0924937 -0.00290865 0)
(-0.0920468 -0.00269674 0)
(-0.090735 -0.00254673 0)
(-0.0884745 -0.00251798 0)
(-0.0850526 -0.00269417 0)
(-0.0799697 -0.00323697 0)
(-0.0725869 -0.004111 0)
(-0.0627694 -0.00497082 0)
(10.0008 0.122279 0)
(10.0676 0.272137 0)
(10.1383 0.342321 0)
(10.1915 0.367553 0)
(10.2161 0.377243 0)
(10.2123 0.385768 0)
(10.1866 0.395783 0)
(10.1458 0.40522 0)
(10.094 0.411968 0)
(10.033 0.415276 0)
(9.96332 0.41546 0)
(9.88493 0.413207 0)
(9.79809 0.409069 0)
(9.70347 0.403324 0)
(9.60188 0.396016 0)
(9.49435 0.3871 0)
(9.38179 0.37651 0)
(9.26524 0.364235 0)
(9.14544 0.350293 0)
(9.02324 0.334782 0)
(8.89947 0.317887 0)
(8.77497 0.299858 0)
(8.65049 0.28099 0)
(8.52676 0.261604 0)
(8.40442 0.242027 0)
(8.28406 0.222582 0)
(8.16618 0.203567 0)
(8.0512 0.185253 0)
(7.93945 0.16786 0)
(7.83123 0.151565 0)
(7.72669 0.136488 0)
(7.62598 0.122702 0)
(7.52912 0.11023 0)
(7.43613 0.0990616 0)
(7.34689 0.089145 0)
(7.26136 0.080415 0)
(7.17932 0.0727812 0)
(7.10062 0.0661645 0)
(7.0251 0.0604852 0)
(6.95261 0.0556545 0)
(6.88297 0.0515751 0)
(6.81599 0.0481467 0)
(6.75151 0.0452723 0)
(6.68934 0.0428626 0)
(6.62932 0.0408388 0)
(6.57131 0.0391329 0)
(6.51515 0.0376875 0)
(6.46073 0.0364544 0)
(6.40792 0.0353935 0)
(6.3566 0.0344717 0)
(6.30669 0.0336617 0)
(6.25808 0.0329417 0)
(6.21069 0.0322942 0)
(6.16445 0.0317053 0)
(6.11929 0.0311644 0)
(6.07514 0.0306633 0)
(6.03194 0.030196 0)
(5.98963 0.0297581 0)
(5.94817 0.0293464 0)
(5.9075 0.0289591 0)
(5.86757 0.0285947 0)
(5.82835 0.0282529 0)
(5.78978 0.0279333 0)
(5.75184 0.0276364 0)
(5.71446 0.0273626 0)
(5.67763 0.0271126 0)
(5.64129 0.0268873 0)
(5.60541 0.0266876 0)
(5.56996 0.0265144 0)
(5.53488 0.0263688 0)
(5.50016 0.0262519 0)
(5.46574 0.0261645 0)
(5.43159 0.0261077 0)
(5.39768 0.0260823 0)
(5.36396 0.0260894 0)
(5.3304 0.02613 0)
(5.29695 0.0262051 0)
(5.26358 0.0263159 0)
(5.23024 0.0264634 0)
(5.1969 0.0266488 0)
(5.1635 0.0268733 0)
(5.13001 0.0271381 0)
(5.09639 0.0274446 0)
(5.06257 0.027794 0)
(5.02853 0.0281879 0)
(4.9942 0.0286276 0)
(4.95953 0.0291147 0)
(4.92448 0.0296508 0)
(4.88898 0.0302374 0)
(4.85299 0.0308763 0)
(4.81644 0.0315693 0)
(4.77927 0.0323181 0)
(4.74142 0.0331244 0)
(4.70282 0.0339902 0)
(4.6634 0.0349173 0)
(4.62309 0.0359074 0)
(4.58182 0.0369624 0)
(4.53951 0.038084 0)
(4.49609 0.0392738 0)
(4.45145 0.0405333 0)
(4.40553 0.041864 0)
(4.35822 0.0432668 0)
(4.30945 0.0447428 0)
(4.2591 0.0462923 0)
(4.20708 0.0479154 0)
(4.15329 0.0496112 0)
(4.09763 0.0513777 0)
(4.03997 0.0532122 0)
(3.98023 0.0551109 0)
(3.91827 0.0570696 0)
(3.85398 0.0590825 0)
(3.78726 0.0611431 0)
(3.71798 0.0632434 0)
(3.64602 0.0653736 0)
(3.57127 0.0675222 0)
(3.49362 0.0696755 0)
(3.41297 0.071818 0)
(3.3292 0.0739312 0)
(3.24224 0.0759945 0)
(3.152 0.0779842 0)
(3.0584 0.0798739 0)
(2.96142 0.0816343 0)
(2.86101 0.0832333 0)
(2.75719 0.0846363 0)
(2.64997 0.0858063 0)
(2.53944 0.0867045 0)
(2.4257 0.0872913 0)
(2.30894 0.0875265 0)
(2.18936 0.0873711 0)
(2.06727 0.0867883 0)
(1.94303 0.0857452 0)
(1.81711 0.0842151 0)
(1.69003 0.0821797 0)
(1.56241 0.0796324 0)
(1.43497 0.0765795 0)
(1.30849 0.0730403 0)
(1.1838 0.0690497 0)
(1.06175 0.0646629 0)
(0.94322 0.0599603 0)
(0.829008 0.0550518 0)
(0.719859 0.0500734 0)
(0.6164 0.0451839 0)
(0.519157 0.0405477 0)
(0.428554 0.0362247 0)
(0.344895 0.0322039 0)
(0.268424 0.028343 0)
(0.199146 0.0244357 0)
(0.137236 0.0204085 0)
(0.0828199 0.0162525 0)
(0.0357073 0.0121299 0)
(-0.00448937 0.00839908 0)
(-0.0384983 0.00531069 0)
(-0.0669208 0.00289797 0)
(-0.090029 0.000787294 0)
(-0.108089 -0.00128854 0)
(-0.121359 -0.00353542 0)
(-0.13005 -0.00614515 0)
(-0.133867 -0.00967914 0)
(-0.132374 -0.0138484 0)
(-0.12591 -0.0171443 0)
(10.0003 0.0614123 0)
(10.0359 0.160323 0)
(10.0898 0.227823 0)
(10.1516 0.268451 0)
(10.2101 0.293285 0)
(10.2592 0.312151 0)
(10.298 0.330012 0)
(10.3292 0.347479 0)
(10.3556 0.363365 0)
(10.3789 0.376571 0)
(10.3993 0.386699 0)
(10.4165 0.393929 0)
(10.4298 0.398643 0)
(10.4388 0.40115 0)
(10.4434 0.401593 0)
(10.4434 0.399981 0)
(10.4391 0.396274 0)
(10.4304 0.39045 0)
(10.4173 0.382569 0)
(10.4001 0.372762 0)
(10.3788 0.361214 0)
(10.3536 0.348157 0)
(10.3248 0.333861 0)
(10.2925 0.318625 0)
(10.2571 0.302758 0)
(10.219 0.286577 0)
(10.1783 0.270381 0)
(10.1356 0.254449 0)
(10.0912 0.239018 0)
(10.0453 0.224289 0)
(9.99843 0.210404 0)
(9.95079 0.197468 0)
(9.90265 0.185529 0)
(9.85427 0.174607 0)
(9.8058 0.164679 0)
(9.75745 0.155708 0)
(9.70929 0.147633 0)
(9.66146 0.140401 0)
(9.61404 0.133956 0)
(9.56707 0.128234 0)
(9.52055 0.12316 0)
(9.4745 0.118656 0)
(9.42892 0.114644 0)
(9.3838 0.111051 0)
(9.33914 0.107814 0)
(9.29493 0.104878 0)
(9.25115 0.102196 0)
(9.20779 0.09973 0)
(9.16484 0.0974471 0)
(9.12228 0.0953206 0)
(9.08009 0.0933285 0)
(9.03826 0.0914528 0)
(8.99677 0.0896791 0)
(8.95562 0.0879959 0)
(8.91479 0.0863944 0)
(8.87427 0.0848676 0)
(8.83405 0.0834104 0)
(8.79411 0.0820191 0)
(8.75445 0.080691 0)
(8.71506 0.0794245 0)
(8.67593 0.0782186 0)
(8.63704 0.0770728 0)
(8.59839 0.0759871 0)
(8.55995 0.074962 0)
(8.52173 0.0739981 0)
(8.4837 0.0730962 0)
(8.44585 0.0722574 0)
(8.40816 0.071483 0)
(8.37062 0.070774 0)
(8.33322 0.0701321 0)
(8.29592 0.0695587 0)
(8.25872 0.0690556 0)
(8.22159 0.0686244 0)
(8.18451 0.0682671 0)
(8.14745 0.0679856 0)
(8.11039 0.0677817 0)
(8.0733 0.0676575 0)
(8.03616 0.067615 0)
(7.99893 0.0676566 0)
(7.96158 0.0677845 0)
(7.92408 0.0680013 0)
(7.88639 0.0683096 0)
(7.84848 0.0687123 0)
(7.8103 0.0692124 0)
(7.77182 0.0698131 0)
(7.73298 0.0705178 0)
(7.69375 0.0713302 0)
(7.65407 0.072254 0)
(7.61389 0.0732935 0)
(7.57316 0.0744528 0)
(7.53181 0.0757365 0)
(7.4898 0.0771495 0)
(7.44704 0.0786966 0)
(7.40348 0.0803833 0)
(7.35904 0.0822148 0)
(7.31365 0.084197 0)
(7.26723 0.0863357 0)
(7.21969 0.0886369 0)
(7.17095 0.091107 0)
(7.12091 0.0937522 0)
(7.06947 0.096579 0)
(7.01653 0.0995939 0)
(6.96198 0.102803 0)
(6.9057 0.106214 0)
(6.84757 0.109832 0)
(6.78747 0.113662 0)
(6.72525 0.117709 0)
(6.66079 0.121977 0)
(6.59391 0.126469 0)
(6.52448 0.131188 0)
(6.45233 0.136132 0)
(6.37729 0.141303 0)
(6.29917 0.146696 0)
(6.21779 0.152305 0)
(6.13296 0.158125 0)
(6.04448 0.164144 0)
(5.95214 0.170348 0)
(5.85572 0.176719 0)
(5.755 0.183235 0)
(5.64976 0.189869 0)
(5.53978 0.196587 0)
(5.42482 0.203349 0)
(5.30465 0.210107 0)
(5.17906 0.216805 0)
(5.04783 0.223379 0)
(4.91076 0.229754 0)
(4.76765 0.235845 0)
(4.61835 0.241553 0)
(4.46272 0.24677 0)
(4.30068 0.251373 0)
(4.13218 0.255226 0)
(3.95725 0.258182 0)
(3.776 0.260079 0)
(3.58862 0.260752 0)
(3.39542 0.260036 0)
(3.19685 0.257772 0)
(2.99349 0.253817 0)
(2.78613 0.248057 0)
(2.57576 0.240423 0)
(2.36359 0.230906 0)
(2.1511 0.219574 0)
(1.94002 0.206579 0)
(1.73234 0.192169 0)
(1.53024 0.176659 0)
(1.33597 0.160417 0)
(1.15172 0.143849 0)
(0.979341 0.127336 0)
(0.820294 0.111415 0)
(0.675112 0.0966273 0)
(0.543643 0.0833097 0)
(0.425601 0.0714699 0)
(0.320642 0.0605944 0)
(0.228493 0.0501638 0)
(0.149198 0.0400233 0)
(0.0818978 0.0300603 0)
(0.0255385 0.0204134 0)
(-0.0213752 0.0107276 0)
(-0.0592658 0.000226088 0)
(-0.0879876 -0.0107152 0)
(-0.107829 -0.0193435 0)
(10.0002 0.0417813 0)
(10.0198 0.117276 0)
(10.0537 0.178916 0)
(10.0983 0.224503 0)
(10.1468 0.256569 0)
(10.1935 0.280048 0)
(10.2355 0.299309 0)
(10.2732 0.316685 0)
(10.3082 0.332559 0)
(10.3422 0.346427 0)
(10.376 0.357801 0)
(10.4096 0.366542 0)
(10.4428 0.37281 0)
(10.4748 0.376855 0)
(10.5055 0.378877 0)
(10.5345 0.378972 0)
(10.5616 0.37718 0)
(10.5867 0.373528 0)
(10.6096 0.368081 0)
(10.6301 0.360948 0)
(10.6482 0.352274 0)
(10.6636 0.342241 0)
(10.6764 0.331062 0)
(10.6863 0.318972 0)
(10.6935 0.306219 0)
(10.698 0.293057 0)
(10.6999 0.279734 0)
(10.6993 0.26648 0)
(10.6964 0.2535 0)
(10.6915 0.240968 0)
(10.6846 0.229026 0)
(10.6761 0.217774 0)
(10.6661 0.207286 0)
(10.6549 0.197597 0)
(10.6427 0.188722 0)
(10.6295 0.18065 0)
(10.6156 0.173359 0)
(10.6011 0.166799 0)
(10.586 0.160912 0)
(10.5705 0.155636 0)
(10.5546 0.150909 0)
(10.5383 0.146672 0)
(10.5217 0.142869 0)
(10.5048 0.139447 0)
(10.4876 0.136359 0)
(10.4701 0.13356 0)
(10.4524 0.131012 0)
(10.4345 0.12868 0)
(10.4163 0.126535 0)
(10.3979 0.124552 0)
(10.3792 0.122709 0)
(10.3603 0.120987 0)
(10.3411 0.119371 0)
(10.3217 0.117848 0)
(10.3021 0.116409 0)
(10.2822 0.115044 0)
(10.2621 0.113749 0)
(10.2417 0.112518 0)
(10.2211 0.111348 0)
(10.2002 0.110237 0)
(10.1791 0.109184 0)
(10.1578 0.108188 0)
(10.1362 0.107249 0)
(10.1143 0.106369 0)
(10.0923 0.105548 0)
(10.07 0.104787 0)
(10.0474 0.10409 0)
(10.0246 0.103457 0)
(10.0015 0.102892 0)
(9.97821 0.102396 0)
(9.95463 0.101974 0)
(9.93078 0.101627 0)
(9.90665 0.101359 0)
(9.88224 0.101175 0)
(9.85754 0.101077 0)
(9.83253 0.101069 0)
(9.80719 0.101155 0)
(9.78153 0.101339 0)
(9.75551 0.101626 0)
(9.72913 0.10202 0)
(9.70236 0.102524 0)
(9.67517 0.103146 0)
(9.64756 0.103888 0)
(9.61949 0.104758 0)
(9.59093 0.10576 0)
(9.56186 0.106901 0)
(9.53225 0.108187 0)
(9.50205 0.109624 0)
(9.47123 0.11122 0)
(9.43975 0.112982 0)
(9.40757 0.114918 0)
(9.37464 0.117035 0)
(9.34091 0.119344 0)
(9.30633 0.121851 0)
(9.27085 0.124568 0)
(9.23439 0.127503 0)
(9.1969 0.130667 0)
(9.1583 0.13407 0)
(9.11853 0.137724 0)
(9.0775 0.141641 0)
(9.03512 0.145831 0)
(8.99132 0.150307 0)
(8.94598 0.155081 0)
(8.89901 0.160167 0)
(8.85029 0.165575 0)
(8.79972 0.17132 0)
(8.74716 0.177414 0)
(8.69248 0.18387 0)
(8.63554 0.190699 0)
(8.57619 0.197915 0)
(8.51426 0.205526 0)
(8.44959 0.213542 0)
(8.38199 0.221972 0)
(8.31127 0.230822 0)
(8.23722 0.240096 0)
(8.15962 0.249796 0)
(8.07825 0.25992 0)
(7.99285 0.270464 0)
(7.90317 0.281418 0)
(7.80892 0.292767 0)
(7.70983 0.304492 0)
(7.60558 0.316564 0)
(7.49585 0.328949 0)
(7.38031 0.341601 0)
(7.25862 0.354467 0)
(7.1304 0.367478 0)
(6.99529 0.380557 0)
(6.8529 0.393607 0)
(6.70284 0.406517 0)
(6.54472 0.419159 0)
(6.37815 0.431385 0)
(6.20275 0.443023 0)
(6.01817 0.453881 0)
(5.82406 0.463742 0)
(5.62016 0.472358 0)
(5.4062 0.479459 0)
(5.18204 0.484753 0)
(4.94762 0.48793 0)
(4.70298 0.488667 0)
(4.44838 0.486628 0)
(4.18422 0.481479 0)
(3.91122 0.472888 0)
(3.63035 0.460564 0)
(3.34297 0.444277 0)
(3.05087 0.423907 0)
(2.75638 0.399495 0)
(2.46239 0.371316 0)
(2.17239 0.339884 0)
(1.89041 0.306046 0)
(1.6208 0.270969 0)
(1.36799 0.235974 0)
(1.13596 0.20237 0)
(0.927556 0.171243 0)
(0.743834 0.143805 0)
(0.583173 0.120409 0)
(0.443391 0.100054 0)
(0.321765 0.0800854 0)
(0.217567 0.0587595 0)
(0.129456 0.0359223 0)
(0.0564219 0.015322 0)
(10.0001 0.0316628 0)
(10.0128 0.0917412 0)
(10.036 0.145038 0)
(10.0682 0.188698 0)
(10.1059 0.222282 0)
(10.1451 0.247719 0)
(10.1829 0.267814 0)
(10.2183 0.284868 0)
(10.2518 0.299981 0)
(10.2843 0.313284 0)
(10.3168 0.324518 0)
(10.3498 0.333474 0)
(10.383 0.340135 0)
(10.4162 0.344637 0)
(10.449 0.347158 0)
(10.4811 0.347849 0)
(10.5124 0.346811 0)
(10.5427 0.344124 0)
(10.5719 0.339864 0)
(10.5998 0.334133 0)
(10.6264 0.327057 0)
(10.6514 0.318793 0)
(10.6747 0.309517 0)
(10.6961 0.299425 0)
(10.7158 0.288725 0)
(10.7335 0.277628 0)
(10.7493 0.26634 0)
(10.7632 0.255055 0)
(10.7754 0.243948 0)
(10.7859 0.23317 0)
(10.7948 0.222847 0)
(10.8024 0.213075 0)
(10.8087 0.203923 0)
(10.8139 0.195435 0)
(10.8182 0.187633 0)
(10.8216 0.180515 0)
(10.8243 0.174064 0)
(10.8263 0.168246 0)
(10.8278 0.163013 0)
(10.8289 0.158318 0)
(10.8295 0.154113 0)
(10.8297 0.150353 0)
(10.8296 0.146993 0)
(10.8291 0.143991 0)
(10.8284 0.141309 0)
(10.8273 0.138907 0)
(10.826 0.13675 0)
(10.8244 0.134808 0)
(10.8225 0.133052 0)
(10.8203 0.131456 0)
(10.8179 0.130001 0)
(10.8151 0.128667 0)
(10.8121 0.12744 0)
(10.8088 0.126306 0)
(10.8052 0.125255 0)
(10.8013 0.12428 0)
(10.7971 0.123373 0)
(10.7926 0.12253 0)
(10.7878 0.121747 0)
(10.7826 0.121022 0)
(10.7771 0.120354 0)
(10.7714 0.119743 0)
(10.7652 0.119188 0)
(10.7588 0.118691 0)
(10.752 0.118253 0)
(10.7449 0.117876 0)
(10.7374 0.117562 0)
(10.7296 0.117315 0)
(10.7215 0.117137 0)
(10.713 0.117032 0)
(10.7041 0.117002 0)
(10.6949 0.117052 0)
(10.6854 0.117187 0)
(10.6754 0.11741 0)
(10.6651 0.117725 0)
(10.6544 0.118139 0)
(10.6433 0.118655 0)
(10.6318 0.11928 0)
(10.6199 0.120018 0)
(10.6075 0.120875 0)
(10.5947 0.121858 0)
(10.5815 0.122974 0)
(10.5677 0.124228 0)
(10.5535 0.125629 0)
(10.5388 0.127183 0)
(10.5236 0.1289 0)
(10.5078 0.130787 0)
(10.4914 0.132853 0)
(10.4744 0.135108 0)
(10.4568 0.137561 0)
(10.4386 0.140224 0)
(10.4196 0.143107 0)
(10.3999 0.146222 0)
(10.3794 0.14958 0)
(10.3582 0.153195 0)
(10.3361 0.157081 0)
(10.313 0.16125 0)
(10.289 0.165719 0)
(10.2641 0.170502 0)
(10.238 0.175615 0)
(10.2108 0.181075 0)
(10.1824 0.186899 0)
(10.1527 0.193106 0)
(10.1217 0.199713 0)
(10.0892 0.20674 0)
(10.0552 0.214207 0)
(10.0196 0.222133 0)
(9.98222 0.230538 0)
(9.94298 0.239444 0)
(9.90177 0.248871 0)
(9.85844 0.258839 0)
(9.81286 0.269368 0)
(9.76487 0.280479 0)
(9.71431 0.292189 0)
(9.661 0.304516 0)
(9.60475 0.317476 0)
(9.54535 0.331083 0)
(9.48259 0.345346 0)
(9.41621 0.360275 0)
(9.34598 0.375872 0)
(9.27161 0.392137 0)
(9.1928 0.409061 0)
(9.10924 0.426631 0)
(9.02059 0.444824 0)
(8.92648 0.46361 0)
(8.82652 0.482944 0)
(8.72028 0.502773 0)
(8.60734 0.523026 0)
(8.4872 0.543617 0)
(8.35937 0.564441 0)
(8.22331 0.585372 0)
(8.07846 0.606263 0)
(7.92423 0.626937 0)
(7.76002 0.647191 0)
(7.58519 0.666784 0)
(7.39909 0.685441 0)
(7.20106 0.702854 0)
(6.99048 0.718676 0)
(6.7667 0.732527 0)
(6.52915 0.743991 0)
(6.27732 0.752616 0)
(6.01079 0.757921 0)
(5.72931 0.759391 0)
(5.43281 0.756477 0)
(5.12146 0.748622 0)
(4.79575 0.735275 0)
(4.45659 0.715914 0)
(4.10539 0.690074 0)
(3.74417 0.657408 0)
(3.37566 0.6178 0)
(3.00354 0.571441 0)
(2.63266 0.518994 0)
(2.26913 0.461742 0)
(1.92032 0.401702 0)
(1.59407 0.341698 0)
(1.29793 0.284817 0)
(1.03707 0.233152 0)
(0.813095 0.187988 0)
(0.62151 0.148448 0)
(0.456747 0.113132 0)
(10.0001 0.0253328 0)
(10.0092 0.0742932 0)
(10.0261 0.11944 0)
(10.0502 0.158589 0)
(10.0797 0.190696 0)
(10.1121 0.216192 0)
(10.1451 0.236531 0)
(10.1773 0.253354 0)
(10.2083 0.267846 0)
(10.2386 0.280502 0)
(10.2688 0.291332 0)
(10.2993 0.300187 0)
(10.3301 0.306982 0)
(10.3611 0.311756 0)
(10.3921 0.314638 0)
(10.4226 0.315781 0)
(10.4527 0.315319 0)
(10.482 0.313362 0)
(10.5106 0.310003 0)
(10.5383 0.305339 0)
(10.5649 0.299483 0)
(10.5905 0.292569 0)
(10.6148 0.284748 0)
(10.6378 0.276188 0)
(10.6594 0.267064 0)
(10.6795 0.257557 0)
(10.6982 0.247841 0)
(10.7155 0.238083 0)
(10.7314 0.228435 0)
(10.746 0.219029 0)
(10.7594 0.209978 0)
(10.7717 0.201371 0)
(10.7829 0.193272 0)
(10.7933 0.185726 0)
(10.8029 0.178758 0)
(10.8119 0.172371 0)
(10.8203 0.166556 0)
(10.8281 0.161289 0)
(10.8356 0.156538 0)
(10.8427 0.152268 0)
(10.8494 0.148441 0)
(10.8559 0.145021 0)
(10.8622 0.141974 0)
(10.8682 0.139263 0)
(10.874 0.136854 0)
(10.8797 0.134715 0)
(10.8851 0.132814 0)
(10.8904 0.131122 0)
(10.8956 0.129613 0)
(10.9005 0.128265 0)
(10.9053 0.127058 0)
(10.9099 0.125975 0)
(10.9144 0.125002 0)
(10.9186 0.124125 0)
(10.9227 0.123336 0)
(10.9265 0.122627 0)
(10.9302 0.121991 0)
(10.9336 0.121423 0)
(10.9368 0.120921 0)
(10.9398 0.120481 0)
(10.9426 0.120103 0)
(10.9451 0.119786 0)
(10.9474 0.119531 0)
(10.9495 0.119338 0)
(10.9513 0.119209 0)
(10.9528 0.119146 0)
(10.9541 0.119152 0)
(10.9552 0.119229 0)
(10.9559 0.119381 0)
(10.9564 0.119612 0)
(10.9566 0.119925 0)
(10.9566 0.120324 0)
(10.9562 0.120814 0)
(10.9556 0.1214 0)
(10.9546 0.122086 0)
(10.9533 0.122879 0)
(10.9518 0.123783 0)
(10.9499 0.124805 0)
(10.9476 0.125951 0)
(10.945 0.127227 0)
(10.9421 0.128642 0)
(10.9388 0.130202 0)
(10.9351 0.131915 0)
(10.9311 0.133789 0)
(10.9266 0.135835 0)
(10.9217 0.13806 0)
(10.9164 0.140475 0)
(10.9106 0.14309 0)
(10.9044 0.145916 0)
(10.8977 0.148966 0)
(10.8904 0.15225 0)
(10.8827 0.155784 0)
(10.8744 0.159579 0)
(10.8655 0.163651 0)
(10.8559 0.168015 0)
(10.8458 0.172688 0)
(10.835 0.177685 0)
(10.8234 0.183025 0)
(10.8111 0.188727 0)
(10.798 0.19481 0)
(10.7841 0.201295 0)
(10.7693 0.208204 0)
(10.7536 0.215558 0)
(10.7368 0.223381 0)
(10.7191 0.231697 0)
(10.7002 0.240533 0)
(10.6801 0.249913 0)
(10.6587 0.259865 0)
(10.6361 0.270417 0)
(10.612 0.281596 0)
(10.5863 0.293433 0)
(10.5591 0.305956 0)
(10.5301 0.319195 0)
(10.4992 0.33318 0)
(10.4663 0.347938 0)
(10.4313 0.363501 0)
(10.3941 0.379893 0)
(10.3543 0.397142 0)
(10.3119 0.41527 0)
(10.2667 0.4343 0)
(10.2184 0.454248 0)
(10.1668 0.475129 0)
(10.1116 0.49695 0)
(10.0525 0.519713 0)
(9.98935 0.543412 0)
(9.92165 0.568032 0)
(9.84907 0.593546 0)
(9.77122 0.619916 0)
(9.68766 0.647089 0)
(9.59789 0.674993 0)
(9.50141 0.703539 0)
(9.39764 0.732613 0)
(9.28596 0.762077 0)
(9.16571 0.791767 0)
(9.03616 0.821487 0)
(8.89655 0.85101 0)
(8.74605 0.880074 0)
(8.58379 0.908374 0)
(8.40884 0.935567 0)
(8.22025 0.961265 0)
(8.01701 0.985034 0)
(7.79812 1.00639 0)
(7.56258 1.02479 0)
(7.30938 1.03961 0)
(7.03759 1.05019 0)
(6.7464 1.05578 0)
(6.43513 1.05561 0)
(6.10333 1.04886 0)
(5.75089 1.03471 0)
(5.3781 1.01235 0)
(4.9858 0.981024 0)
(4.57566 0.940094 0)
(4.15019 0.889063 0)
(3.71313 0.82769 0)
(3.26943 0.756217 0)
(2.82587 0.675632 0)
(2.3913 0.588012 0)
(1.97701 0.496782 0)
(1.59511 0.406989 0)
(1.2556 0.324091 0)
(10.0001 0.0208371 0)
(10.007 0.0615061 0)
(10.02 0.099729 0)
(10.0387 0.134103 0)
(10.0623 0.163617 0)
(10.0892 0.188086 0)
(10.1177 0.208099 0)
(10.1466 0.224641 0)
(10.1751 0.238661 0)
(10.2033 0.25075 0)
(10.2314 0.26111 0)
(10.2596 0.269714 0)
(10.2882 0.276491 0)
(10.317 0.281432 0)
(10.3459 0.284613 0)
(10.3745 0.286161 0)
(10.4028 0.286213 0)
(10.4305 0.284889 0)
(10.4576 0.282292 0)
(10.4839 0.278522 0)
(10.5094 0.273682 0)
(10.5339 0.267888 0)
(10.5574 0.261271 0)
(10.5798 0.253976 0)
(10.6011 0.246151 0)
(10.6212 0.237952 0)
(10.64 0.22953 0)
(10.6576 0.221028 0)
(10.6741 0.212578 0)
(10.6895 0.204297 0)
(10.7038 0.196286 0)
(10.7172 0.188624 0)
(10.7298 0.181375 0)
(10.7415 0.174582 0)
(10.7526 0.168271 0)
(10.7631 0.162452 0)
(10.7731 0.157122 0)
(10.7827 0.152268 0)
(10.7919 0.14787 0)
(10.8007 0.143901 0)
(10.8093 0.140335 0)
(10.8177 0.137141 0)
(10.8259 0.134291 0)
(10.8339 0.131754 0)
(10.8418 0.129502 0)
(10.8495 0.127506 0)
(10.8571 0.125738 0)
(10.8646 0.124174 0)
(10.872 0.122789 0)
(10.8793 0.121564 0)
(10.8865 0.120481 0)
(10.8936 0.119524 0)
(10.9006 0.11868 0)
(10.9074 0.117937 0)
(10.9142 0.117287 0)
(10.9208 0.116722 0)
(10.9273 0.116236 0)
(10.9337 0.115824 0)
(10.94 0.115484 0)
(10.9461 0.115212 0)
(10.952 0.115007 0)
(10.9578 0.11487 0)
(10.9635 0.1148 0)
(10.969 0.114798 0)
(10.9744 0.114866 0)
(10.9795 0.115006 0)
(10.9846 0.115221 0)
(10.9894 0.115512 0)
(10.994 0.115884 0)
(10.9985 0.116341 0)
(11.0028 0.116886 0)
(11.0069 0.117523 0)
(11.0108 0.118258 0)
(11.0145 0.119095 0)
(11.018 0.12004 0)
(11.0212 0.121097 0)
(11.0243 0.122274 0)
(11.0271 0.123577 0)
(11.0297 0.125012 0)
(11.0321 0.126587 0)
(11.0342 0.128309 0)
(11.036 0.130187 0)
(11.0376 0.132229 0)
(11.0389 0.134444 0)
(11.04 0.136842 0)
(11.0407 0.139433 0)
(11.0412 0.142228 0)
(11.0413 0.145239 0)
(11.0411 0.148477 0)
(11.0406 0.151955 0)
(11.0397 0.155686 0)
(11.0384 0.159687 0)
(11.0368 0.16397 0)
(11.0347 0.168553 0)
(11.0323 0.173452 0)
(11.0293 0.178685 0)
(11.026 0.184272 0)
(11.0221 0.190231 0)
(11.0177 0.196584 0)
(11.0128 0.203353 0)
(11.0074 0.210562 0)
(11.0013 0.218233 0)
(10.9946 0.226393 0)
(10.9873 0.235069 0)
(10.9792 0.244289 0)
(10.9704 0.254081 0)
(10.9608 0.264477 0)
(10.9504 0.275507 0)
(10.9391 0.287205 0)
(10.9269 0.299605 0)
(10.9136 0.312743 0)
(10.8993 0.326653 0)
(10.8839 0.341373 0)
(10.8672 0.356941 0)
(10.8493 0.373396 0)
(10.8299 0.390774 0)
(10.809 0.409116 0)
(10.7866 0.428458 0)
(10.7623 0.448838 0)
(10.7363 0.470292 0)
(10.7081 0.492855 0)
(10.6778 0.516557 0)
(10.6452 0.541427 0)
(10.6099 0.567489 0)
(10.5719 0.594762 0)
(10.5308 0.623257 0)
(10.4863 0.652978 0)
(10.4382 0.68392 0)
(10.3862 0.716063 0)
(10.3298 0.749378 0)
(10.2685 0.783817 0)
(10.2021 0.819314 0)
(10.1298 0.855782 0)
(10.0512 0.893112 0)
(9.96554 0.931167 0)
(9.87218 0.969784 0)
(9.77033 1.00876 0)
(9.65912 1.04786 0)
(9.53762 1.08681 0)
(9.40481 1.12528 0)
(9.25958 1.16288 0)
(9.10075 1.19919 0)
(8.92704 1.23371 0)
(8.73712 1.26588 0)
(8.52955 1.29506 0)
(8.30292 1.32055 0)
(8.05572 1.34156 0)
(7.78653 1.35724 0)
(7.49391 1.36665 0)
(7.17659 1.36878 0)
(6.83347 1.36253 0)
(6.4638 1.34675 0)
(6.06726 1.32025 0)
(5.64417 1.28186 0)
(5.19558 1.23048 0)
(4.72372 1.16528 0)
(4.23227 1.08579 0)
(3.72669 0.992045 0)
(3.21458 0.884949 0)
(2.70605 0.767009 0)
(10.0001 0.0174421 0)
(10.0056 0.0516768 0)
(10.016 0.084246 0)
(10.0311 0.114219 0)
(10.0503 0.14079 0)
(10.0729 0.163585 0)
(10.0976 0.182739 0)
(10.1233 0.19876 0)
(10.1494 0.212282 0)
(10.1755 0.22383 0)
(10.2017 0.233687 0)
(10.2281 0.241933 0)
(10.2547 0.248548 0)
(10.2816 0.253522 0)
(10.3085 0.256896 0)
(10.3354 0.258762 0)
(10.3621 0.259239 0)
(10.3883 0.258445 0)
(10.4139 0.256486 0)
(10.4389 0.253461 0)
(10.4632 0.249469 0)
(10.4867 0.244613 0)
(10.5093 0.239009 0)
(10.531 0.232781 0)
(10.5516 0.226058 0)
(10.5712 0.218973 0)
(10.5897 0.211657 0)
(10.6072 0.204234 0)
(10.6236 0.196819 0)
(10.6391 0.189516 0)
(10.6537 0.182413 0)
(10.6674 0.175583 0)
(10.6803 0.169085 0)
(10.6925 0.16296 0)
(10.704 0.157236 0)
(10.715 0.151928 0)
(10.7256 0.147039 0)
(10.7357 0.142563 0)
(10.7454 0.138487 0)
(10.7548 0.134795 0)
(10.764 0.131464 0)
(10.7729 0.128472 0)
(10.7817 0.125794 0)
(10.7902 0.123406 0)
(10.7987 0.121283 0)
(10.807 0.1194 0)
(10.8152 0.117733 0)
(10.8233 0.116261 0)
(10.8313 0.114964 0)
(10.8392 0.113823 0)
(10.847 0.112823 0)
(10.8548 0.111949 0)
(10.8624 0.11119 0)
(10.87 0.110534 0)
(10.8775 0.109975 0)
(10.8849 0.109504 0)
(10.8922 0.109116 0)
(10.8995 0.108806 0)
(10.9066 0.108572 0)
(10.9136 0.10841 0)
(10.9205 0.108321 0)
(10.9274 0.108303 0)
(10.9341 0.108356 0)
(10.9407 0.108482 0)
(10.9471 0.108682 0)
(10.9535 0.108958 0)
(10.9598 0.109312 0)
(10.9659 0.109748 0)
(10.9719 0.110268 0)
(10.9777 0.110878 0)
(10.9834 0.111579 0)
(10.989 0.112378 0)
(10.9945 0.113278 0)
(10.9998 0.114286 0)
(11.0049 0.115405 0)
(11.0099 0.116643 0)
(11.0148 0.118006 0)
(11.0195 0.1195 0)
(11.024 0.121133 0)
(11.0283 0.122912 0)
(11.0325 0.124845 0)
(11.0365 0.12694 0)
(11.0403 0.129207 0)
(11.0439 0.131656 0)
(11.0473 0.134296 0)
(11.0505 0.137137 0)
(11.0535 0.140193 0)
(11.0562 0.143474 0)
(11.0588 0.146993 0)
(11.061 0.150764 0)
(11.0631 0.154801 0)
(11.0649 0.15912 0)
(11.0664 0.163736 0)
(11.0676 0.168666 0)
(11.0686 0.173928 0)
(11.0692 0.179541 0)
(11.0695 0.185525 0)
(11.0695 0.191901 0)
(11.0692 0.198692 0)
(11.0685 0.20592 0)
(11.0674 0.213611 0)
(11.0659 0.22179 0)
(11.064 0.230485 0)
(11.0616 0.239725 0)
(11.0588 0.249539 0)
(11.0555 0.25996 0)
(11.0517 0.27102 0)
(11.0474 0.282753 0)
(11.0425 0.295197 0)
(11.037 0.308387 0)
(11.0308 0.322365 0)
(11.024 0.337169 0)
(11.0165 0.352841 0)
(11.0082 0.369424 0)
(10.9992 0.386963 0)
(10.9892 0.405503 0)
(10.9784 0.425089 0)
(10.9665 0.445768 0)
(10.9536 0.467586 0)
(10.9395 0.490591 0)
(10.9243 0.514827 0)
(10.9076 0.540341 0)
(10.8896 0.567175 0)
(10.8699 0.595371 0)
(10.8486 0.624967 0)
(10.8254 0.655997 0)
(10.8001 0.688488 0)
(10.7726 0.722465 0)
(10.7425 0.757938 0)
(10.7097 0.794916 0)
(10.6739 0.833387 0)
(10.6347 0.873335 0)
(10.5917 0.914721 0)
(10.5445 0.957493 0)
(10.4926 1.00157 0)
(10.4355 1.04687 0)
(10.3725 1.09325 0)
(10.3029 1.14056 0)
(10.226 1.1886 0)
(10.1409 1.23713 0)
(10.0465 1.28587 0)
(9.9419 1.33448 0)
(9.82574 1.38256 0)
(9.69675 1.42965 0)
(9.55348 1.47521 0)
(9.39435 1.51862 0)
(9.21768 1.55918 0)
(9.02165 1.59607 0)
(8.80436 1.62841 0)
(8.56382 1.65519 0)
(8.29805 1.6753 0)
(8.005 1.6875 0)
(7.68284 1.69047 0)
(7.32976 1.68275 0)
(6.94439 1.66284 0)
(6.52572 1.62911 0)
(6.07361 1.58005 0)
(5.58872 1.51413 0)
(5.07307 1.43017 0)
(4.53049 1.32763 0)
(10 0.0147647 0)
(10.0046 0.0438384 0)
(10.0132 0.0717485 0)
(10.0257 0.0978082 0)
(10.0419 0.121427 0)
(10.0611 0.142214 0)
(10.0826 0.160095 0)
(10.1056 0.175286 0)
(10.1293 0.188164 0)
(10.1535 0.199118 0)
(10.1779 0.208429 0)
(10.2025 0.216232 0)
(10.2274 0.222567 0)
(10.2526 0.227441 0)
(10.278 0.230882 0)
(10.3033 0.232956 0)
(10.3285 0.233756 0)
(10.3533 0.233387 0)
(10.3778 0.231952 0)
(10.4016 0.229548 0)
(10.4249 0.226269 0)
(10.4474 0.22221 0)
(10.4692 0.217473 0)
(10.4901 0.212165 0)
(10.5102 0.206399 0)
(10.5293 0.200289 0)
(10.5475 0.193948 0)
(10.5648 0.187483 0)
(10.5812 0.180996 0)
(10.5966 0.174576 0)
(10.6113 0.168301 0)
(10.6251 0.162238 0)
(10.6382 0.156441 0)
(10.6506 0.150949 0)
(10.6625 0.14579 0)
(10.6738 0.140981 0)
(10.6846 0.136531 0)
(10.695 0.132438 0)
(10.705 0.128696 0)
(10.7147 0.125293 0)
(10.7242 0.122213 0)
(10.7334 0.119439 0)
(10.7423 0.116949 0)
(10.7511 0.114723 0)
(10.7598 0.112742 0)
(10.7683 0.110983 0)
(10.7767 0.109428 0)
(10.785 0.108056 0)
(10.7932 0.106852 0)
(10.8012 0.105799 0)
(10.8092 0.104883 0)
(10.8171 0.104091 0)
(10.825 0.103413 0)
(10.8327 0.102839 0)
(10.8404 0.102362 0)
(10.848 0.101974 0)
(10.8555 0.101671 0)
(10.8629 0.101449 0)
(10.8702 0.101304 0)
(10.8774 0.101235 0)
(10.8846 0.10124 0)
(10.8916 0.101318 0)
(10.8986 0.101471 0)
(10.9055 0.101699 0)
(10.9123 0.102003 0)
(10.9189 0.102386 0)
(10.9255 0.10285 0)
(10.932 0.103398 0)
(10.9384 0.104034 0)
(10.9446 0.10476 0)
(10.9508 0.105582 0)
(10.9568 0.106504 0)
(10.9627 0.107531 0)
(10.9685 0.108668 0)
(10.9742 0.10992 0)
(10.9798 0.111294 0)
(10.9852 0.112797 0)
(10.9905 0.114435 0)
(10.9957 0.116216 0)
(11.0007 0.118147 0)
(11.0056 0.120236 0)
(11.0103 0.122494 0)
(11.0149 0.124928 0)
(11.0194 0.127549 0)
(11.0237 0.130366 0)
(11.0278 0.133392 0)
(11.0318 0.136638 0)
(11.0356 0.140117 0)