/*--------------------------------*- C++ -*----------------------------------*\
| =========                 |                                                 |
| \\      /  F ield         | OpenFOAM: The Open Source CFD Toolbox           |
|  \\    /   O peration     | Version:  2306                                  |
|   \\  /    A nd           | Website:  www.openfoam.com                      |
|    \\/     M anipulation  |                                                 |
\*---------------------------------------------------------------------------*/
FoamFile
{
    version     2.0;
    format      ascii;
    arch        "LSB;label=32;scalar=64";
    class       volScalarField;
    location    "0.475";
    object      p;
}
// * * * * * * * * * * * * * * * * * * * * * * * * * * * * * * * * * * * * * //

dimensions      [0 2 -2 0 0 0 0];

internalField   nonuniform List<scalar> 
17600
(
515.866
513.823
512.045
510.815
510.052
509.545
509.128
508.72
508.303
507.879
507.459
507.047
506.643
506.246
505.854
505.468
505.087
504.715
504.353
504.007
503.679
503.371
503.087
502.828
502.595
502.388
502.205
502.046
501.908
501.789
501.687
501.597
501.518
501.447
501.382
501.321
501.263
501.205
501.148
501.09
501.031
500.97
500.908
500.844
500.778
500.711
500.643
500.574
500.503
500.432
500.36
500.288
500.215
500.143
500.07
499.998
499.926
499.855
499.784
499.715
499.645
499.577
499.51
499.444
499.379
499.314
499.252
499.19
499.13
499.071
499.013
498.957
498.902
498.848
498.797
498.746
498.698
498.651
498.606
498.563
498.521
498.482
498.445
498.409
498.376
498.345
498.317
498.291
498.268
498.247
498.229
498.214
498.201
498.192
498.186
498.183
498.184
498.189
498.197
498.209
498.225
498.245
498.269
498.298
498.331
498.369
498.412
498.46
498.513
498.571
498.635
498.704
498.778
498.858
498.944
499.035
499.133
499.235
499.344
499.458
499.577
499.702
499.832
499.967
500.107
500.251
500.399
500.55
500.704
500.861
501.02
501.18
501.341
501.502
501.663
501.822
501.979
502.134
502.287
502.435
502.581
502.721
502.857
502.988
503.114
503.234
503.349
503.459
503.564
503.663
503.758
503.849
503.934
504.015
504.093
504.166
504.236
504.303
504.367
504.428
513.137
512.367
511.441
510.577
509.887
509.364
508.944
508.562
508.181
507.793
507.399
507.004
506.615
506.23
505.851
505.477
505.109
504.749
504.401
504.066
503.747
503.448
503.17
502.914
502.682
502.475
502.29
502.128
501.987
501.863
501.755
501.661
501.576
501.5
501.43
501.364
501.301
501.239
501.178
501.117
501.055
500.992
500.928
500.862
500.795
500.727
500.657
500.587
500.515
500.443
500.371
500.298
500.225
500.152
500.079
500.007
499.935
499.863
499.792
499.722
499.653
499.585
499.517
499.451
499.385
499.321
499.258
499.196
499.136
499.077
499.019
498.963
498.908
498.854
498.802
498.752
498.703
498.657
498.611
498.568
498.527
498.487
498.45
498.415
498.382
498.351
498.322
498.296
498.273
498.252
498.234
498.219
498.207
498.198
498.192
498.189
498.19
498.195
498.203
498.215
498.231
498.252
498.276
498.305
498.339
498.378
498.421
498.469
498.523
498.581
498.645
498.715
498.79
498.871
498.957
499.049
499.147
499.251
499.36
499.475
499.595
499.721
499.852
499.988
500.129
500.273
500.422
500.574
500.729
500.887
501.046
501.206
501.367
501.528
501.688
501.846
502.002
502.156
502.307
502.455
502.599
502.738
502.874
503.004
503.129
503.249
503.362
503.471
503.574
503.673
503.767
503.856
503.94
504.02
504.097
504.17
504.239
504.305
504.369
504.43
511.833
511.484
510.954
510.342
509.75
509.236
508.803
508.423
508.063
507.701
507.333
506.961
506.59
506.222
505.86
505.504
505.155
504.814
504.484
504.166
503.862
503.575
503.306
503.057
502.828
502.62
502.433
502.265
502.116
501.983
501.865
501.759
501.664
501.578
501.498
501.423
501.352
501.283
501.215
501.147
501.08
501.012
500.944
500.876
500.806
500.736
500.665
500.594
500.521
500.449
500.376
500.302
500.229
500.156
500.083
500.01
499.938
499.867
499.796
499.725
499.656
499.587
499.52
499.453
499.388
499.323
499.26
499.198
499.137
499.078
499.02
498.963
498.908
498.854
498.802
498.751
498.702
498.655
498.609
498.566
498.524
498.484
498.446
498.41
498.377
498.345
498.316
498.29
498.266
498.245
498.226
498.21
498.197
498.188
498.181
498.178
498.178
498.182
498.189
498.2
498.216
498.235
498.259
498.287
498.32
498.357
498.4
498.447
498.499
498.557
498.62
498.689
498.763
498.843
498.928
499.02
499.117
499.22
499.329
499.444
499.564
499.69
499.821
499.957
500.098
500.244
500.393
500.547
500.704
500.863
501.025
501.188
501.351
501.515
501.678
501.84
502
502.158
502.312
502.462
502.608
502.75
502.885
503.015
503.14
503.258
503.371
503.479
503.582
503.681
503.775
503.865
503.949
504.029
504.104
504.177
504.245
504.311
504.373
504.433
510.93
510.737
510.405
509.969
509.494
509.038
508.627
508.259
507.916
507.579
507.239
506.894
506.546
506.2
505.858
505.521
505.192
504.871
504.559
504.258
503.97
503.696
503.437
503.195
502.971
502.765
502.577
502.406
502.251
502.111
501.985
501.871
501.767
501.671
501.581
501.498
501.418
501.341
501.265
501.192
501.119
501.046
500.974
500.901
500.829
500.756
500.683
500.609
500.535
500.461
500.387
500.313
500.238
500.164
500.091
500.018
499.945
499.873
499.801
499.73
499.66
499.591
499.523
499.456
499.39
499.325
499.261
499.199
499.137
499.077
499.019
498.961
498.905
498.851
498.798
498.747
498.697
498.649
498.602
498.558
498.515
498.474
498.435
498.399
498.364
498.332
498.302
498.274
498.249
498.226
498.206
498.189
498.174
498.163
498.155
498.15
498.148
498.15
498.156
498.165
498.178
498.196
498.217
498.243
498.273
498.308
498.348
498.392
498.442
498.497
498.557
498.623
498.694
498.771
498.854
498.942
499.036
499.137
499.243
499.354
499.472
499.595
499.724
499.859
499.998
500.143
500.292
500.445
500.602
500.762
500.925
501.09
501.257
501.424
501.592
501.759
501.925
502.089
502.251
502.408
502.563
502.712
502.856
502.995
503.127
503.253
503.373
503.485
503.59
503.689
503.782
503.87
503.954
504.033
504.11
504.183
504.253
504.318
504.38
504.439
510.243
510.118
509.89
509.573
509.202
508.817
508.446
508.101
507.776
507.46
507.144
506.824
506.5
506.176
505.853
505.536
505.225
504.922
504.627
504.341
504.066
503.804
503.555
503.32
503.101
502.897
502.709
502.536
502.378
502.233
502.1
501.979
501.866
501.762
501.665
501.573
501.485
501.401
501.319
501.239
501.161
501.083
501.007
500.931
500.855
500.779
500.703
500.627
500.551
500.475
500.4
500.324
500.249
500.174
500.099
500.025
499.952
499.879
499.807
499.735
499.665
499.595
499.526
499.459
499.392
499.326
499.262
499.199
499.136
499.076
499.016
498.958
498.901
498.846
498.792
498.739
498.688
498.639
498.592
498.546
498.502
498.46
498.419
498.381
498.345
498.311
498.279
498.25
498.222
498.198
498.176
498.156
498.14
498.126
498.115
498.108
498.103
498.102
498.105
498.111
498.12
498.134
498.152
498.174
498.2
498.231
498.266
498.306
498.351
498.401
498.456
498.517
498.582
498.654
498.731
498.813
498.901
498.995
499.095
499.201
499.313
499.43
499.553
499.681
499.815
499.954
500.098
500.246
500.399
500.556
500.716
500.88
501.045
501.213
501.382
501.552
501.722
501.892
502.06
502.227
502.392
502.553
502.711
502.864
503.012
503.154
503.289
503.417
503.539
503.653
503.76
503.86
503.953
504.037
504.115
504.186
504.254
504.319
504.382
504.443
509.696
509.606
509.439
509.201
508.91
508.59
508.265
507.948
507.644
507.347
507.052
506.754
506.452
506.148
505.845
505.546
505.252
504.964
504.683
504.411
504.149
503.897
503.656
503.429
503.214
503.013
502.826
502.652
502.491
502.342
502.204
502.076
501.957
501.846
501.742
501.643
501.549
501.458
501.37
501.285
501.202
501.12
501.039
500.959
500.88
500.801
500.723
500.645
500.567
500.49
500.412
500.336
500.259
500.183
500.108
500.033
499.958
499.885
499.812
499.74
499.668
499.598
499.529
499.46
499.393
499.326
499.261
499.197
499.134
499.072
499.012
498.953
498.895
498.838
498.783
498.73
498.677
498.627
498.578
498.531
498.485
498.441
498.399
498.359
498.321
498.285
498.251
498.219
498.19
498.163
498.138
498.116
498.096
498.08
498.066
498.055
498.047
498.042
498.041
498.042
498.048
498.057
498.07
498.087
498.108
498.133
498.162
498.196
498.235
498.278
498.326
498.379
498.437
498.5
498.569
498.643
498.722
498.807
498.897
498.993
499.095
499.202
499.315
499.433
499.557
499.686
499.82
499.959
500.102
500.25
500.402
500.558
500.717
500.879
501.044
501.212
501.381
501.551
501.722
501.894
502.065
502.235
502.403
502.57
502.733
502.893
503.049
503.201
503.347
503.487
503.62
503.745
503.862
503.97
504.07
504.161
504.244
504.318
504.384
504.443
509.247
509.179
509.05
508.865
508.632
508.366
508.083
507.798
507.516
507.238
506.961
506.682
506.401
506.116
505.832
505.549
505.27
504.996
504.729
504.469
504.217
503.975
503.742
503.521
503.311
503.113
502.927
502.752
502.589
502.438
502.296
502.163
502.039
501.922
501.812
501.707
501.607
501.511
501.418
501.328
501.241
501.155
501.07
500.987
500.905
500.823
500.742
500.662
500.582
500.503
500.425
500.346
500.269
500.192
500.115
500.039
499.964
499.89
499.816
499.743
499.671
499.6
499.53
499.461
499.392
499.325
499.259
499.194
499.13
499.068
499.006
498.946
498.887
498.829
498.773
498.718
498.665
498.613
498.562
498.513
498.466
498.42
498.377
498.335
498.294
498.256
498.22
498.186
498.154
498.124
498.096
498.071
498.048
498.028
498.01
497.996
497.984
497.975
497.969
497.966
497.966
497.97
497.978
497.989
498.003
498.022
498.045
498.071
498.102
498.137
498.177
498.221
498.27
498.324
498.382
498.446
498.514
498.588
498.666
498.75
498.839
498.933
499.033
499.137
499.247
499.362
499.481
499.606
499.735
499.869
500.007
500.15
500.296
500.446
500.6
500.758
500.918
501.081
501.247
501.415
501.585
501.756
501.929
502.103
502.277
502.45
502.623
502.795
502.964
503.13
503.293
503.45
503.602
503.747
503.884
504.011
504.128
504.234
504.329
504.414
508.873
508.818
508.715
508.566
508.375
508.151
507.906
507.65
507.392
507.133
506.873
506.612
506.348
506.081
505.813
505.546
505.281
505.021
504.765
504.516
504.274
504.041
503.815
503.6
503.394
503.199
503.014
502.84
502.676
502.522
502.377
502.241
502.112
501.991
501.876
501.766
501.661
501.56
501.463
501.369
501.277
501.187
501.1
501.013
500.928
500.844
500.761
500.679
500.597
500.516
500.436
500.356
500.278
500.199
500.122
500.045
499.969
499.894
499.819
499.746
499.673
499.601
499.53
499.46
499.391
499.323
499.256
499.19
499.125
499.062
498.999
498.938
498.878
498.819
498.761
498.705
498.65
498.597
498.544
498.494
498.445
498.397
498.352
498.308
498.265
498.225
498.186
498.149
498.114
498.082
498.051
498.023
497.997
497.973
497.951
497.933
497.916
497.903
497.892
497.884
497.88
497.878
497.879
497.884
497.892
497.904
497.919
497.938
497.961
497.987
498.018
498.053
498.091
498.135
498.182
498.234
498.29
498.351
498.417
498.487
498.561
498.641
498.725
498.813
498.907
499.005
499.107
499.214
499.325
499.441
499.561
499.686
499.814
499.947
500.083
500.224
500.369
500.517
500.669
500.825
500.985
501.148
501.315
501.486
501.66
501.837
502.017
502.2
502.385
502.571
502.758
502.944
503.129
503.311
503.489
503.661
503.826
503.98
504.124
504.255
508.556
508.511
508.426
508.302
508.142
507.95
507.737
507.509
507.272
507.032
506.789
506.544
506.295
506.044
505.792
505.539
505.287
505.038
504.794
504.555
504.322
504.096
503.877
503.667
503.466
503.273
503.09
502.917
502.752
502.596
502.449
502.31
502.178
502.053
501.934
501.82
501.711
501.606
501.505
501.406
501.311
501.218
501.127
501.038
500.95
500.863
500.778
500.694
500.611
500.528
500.447
500.366
500.286
500.206
500.128
500.05
499.973
499.897
499.822
499.747
499.674
499.601
499.529
499.458
499.389
499.32
499.252
499.185
499.119
499.054
498.991
498.928
498.867
498.807
498.748
498.69
498.634
498.579
498.525
498.473
498.422
498.373
498.325
498.279
498.234
498.191
498.15
498.111
498.073
498.038
498.004
497.972
497.943
497.915
497.89
497.867
497.846
497.828
497.813
497.8
497.789
497.782
497.777
497.775
497.777
497.781
497.789
497.8
497.814
497.832
497.853
497.878
497.906
497.938
497.974
498.014
498.057
498.105
498.157
498.212
498.272
498.335
498.403
498.474
498.55
498.629
498.713
498.8
498.892
498.987
499.086
499.19
499.297
499.408
499.523
499.642
499.766
499.893
500.026
500.162
500.304
500.451
500.603
500.76
500.923
501.093
501.268
501.45
501.637
501.831
502.03
502.234
502.443
502.654
502.867
503.08
503.29
503.497
503.696
503.887
508.287
508.249
508.177
508.071
507.933
507.767
507.579
507.375
507.159
506.937
506.709
506.479
506.245
506.008
505.768
505.528
505.289
505.051
504.817
504.586
504.361
504.142
503.93
503.725
503.527
503.337
503.156
502.983
502.818
502.662
502.513
502.371
502.237
502.108
501.986
501.868
501.755
501.647
501.542
501.441
501.342
501.246
501.152
501.06
500.97
500.882
500.794
500.708
500.623
500.539
500.456
500.374
500.293
500.212
500.133
500.054
499.976
499.899
499.823
499.748
499.674
499.6
499.527
499.456
499.385
499.315
499.246
499.179
499.112
499.046
498.981
498.918
498.855
498.794
498.734
498.675
498.617
498.56
498.505
498.451
498.398
498.347
498.297
498.249
498.202
498.157
498.113
498.071
498.03
497.992
497.955
497.92
497.886
497.855
497.826
497.799
497.774
497.751
497.73
497.712
497.696
497.683
497.672
497.664
497.658
497.655
497.655
497.658
497.664
497.672
497.684
497.698
497.716
497.737
497.761
497.789
497.819
497.853
497.891
497.931
497.975
498.022
498.073
498.127
498.184
498.244
498.308
498.375
498.446
498.519
498.596
498.676
498.76
498.847
498.938
499.033
499.132
499.235
499.343
499.455
499.573
499.696
499.826
499.963
500.106
500.258
500.418
500.587
500.765
500.953
501.15
501.358
501.575
501.801
502.035
502.276
502.523
502.772
503.022
503.27
508.056
508.024
507.961
507.869
507.749
507.603
507.435
507.251
507.054
506.847
506.635
506.418
506.196
505.972
505.744
505.516
505.287
505.059
504.834
504.612
504.394
504.181
503.974
503.773
503.579
503.392
503.213
503.041
502.876
502.719
502.569
502.425
502.288
502.157
502.032
501.911
501.796
501.684
501.576
501.472
501.371
501.272
501.175
501.081
500.989
500.898
500.809
500.721
500.634
500.549
500.465
500.381
500.299
500.218
500.137
500.057
499.979
499.901
499.824
499.748
499.672
499.598
499.525
499.452
499.38
499.31
499.24
499.171
499.103
499.037
498.971
498.906
498.842
498.78
498.718
498.658
498.598
498.54
498.483
498.427
498.373
498.32
498.268
498.217
498.168
498.12
498.074
498.029
497.986
497.944
497.904
497.866
497.829
497.794
497.76
497.729
497.699
497.672
497.646
497.623
497.601
497.582
497.565
497.55
497.537
497.527
497.519
497.514
497.511
497.51
497.512
497.516
497.524
497.533
497.546
497.561
497.578
497.598
497.621
497.647
497.675
497.706
497.739
497.775
497.813
497.854
497.898
497.944
497.992
498.043
498.097
498.154
498.213
498.275
498.34
498.408
498.481
498.556
498.637
498.722
498.812
498.908
499.011
499.12
499.238
499.365
499.501
499.648
499.807
499.977
500.161
500.358
500.569
500.795
501.034
501.288
501.553
501.83
502.117
502.409
507.86
507.831
507.776
507.694
507.587
507.457
507.306
507.138
506.957
506.765
506.566
506.361
506.151
505.937
505.721
505.502
505.283
505.064
504.846
504.632
504.42
504.213
504.011
503.814
503.624
503.439
503.261
503.09
502.926
502.768
502.617
502.472
502.333
502.2
502.072
501.949
501.831
501.717
501.607
501.5
501.396
501.295
501.196
501.1
501.005
500.913
500.822
500.732
500.644
500.557
500.472
500.387
500.304
500.221
500.14
500.059
499.98
499.901
499.823
499.746
499.67
499.595
499.521
499.447
499.375
499.303
499.233
499.163
499.094
499.026
498.959
498.893
498.828
498.764
498.701
498.64
498.579
498.519
498.46
498.403
498.346
498.291
498.237
498.184
498.133
498.083
498.034
497.986
497.94
497.895
497.852
497.81
497.769
497.731
497.693
497.658
497.623
497.591
497.56
497.531
497.504
497.479
497.456
497.434
497.414
497.397
497.381
497.367
497.355
497.346
497.338
497.332
497.328
497.327
497.327
497.33
497.334
497.341
497.349
497.359
497.372
497.386
497.402
497.42
497.439
497.46
497.483
497.508
497.535
497.563
497.593
497.625
497.658
497.695
497.733
497.774
497.818
497.865
497.916
497.971
498.031
498.097
498.169
498.248
498.336
498.433
498.54
498.658
498.79
498.935
499.095
499.272
499.466
499.677
499.908
500.158
500.426
500.713
501.017
501.337
507.693
507.667
507.618
507.544
507.448
507.329
507.192
507.038
506.87
506.691
506.503
506.309
506.109
505.905
505.698
505.488
505.277
505.066
504.856
504.647
504.442
504.24
504.042
503.849
503.661
503.479
503.302
503.132
502.968
502.81
502.658
502.512
502.372
502.237
502.108
501.983
501.862
501.746
501.633
501.524
501.418
501.315
501.214
501.116
501.02
500.925
500.833
500.742
500.653
500.565
500.478
500.392
500.308
500.224
500.142
500.06
499.98
499.9
499.822
499.744
499.667
499.591
499.516
499.442
499.368
499.296
499.224
499.153
499.084
499.015
498.947
498.879
498.813
498.748
498.684
498.62
498.558
498.497
498.436
498.377
498.319
498.262
498.205
498.15
498.097
498.044
497.992
497.942
497.893
497.845
497.798
497.753
497.709
497.666
497.625
497.585
497.546
497.509
497.473
497.439
497.406
497.375
497.345
497.316
497.29
497.265
497.241
497.219
497.198
497.179
497.162
497.146
497.132
497.119
497.107
497.097
497.088
497.081
497.075
497.07
497.067
497.064
497.062
497.062
497.063
497.064
497.066
497.069
497.074
497.078
497.084
497.091
497.099
497.109
497.119
497.132
497.147
497.164
497.184
497.208
497.236
497.269
497.308
497.354
497.408
497.472
497.546
497.631
497.73
497.844
497.974
498.123
498.29
498.479
498.689
498.923
499.18
499.462
499.768
500.097
507.552
507.529
507.483
507.416
507.328
507.22
507.093
506.95
506.793
506.625
506.448
506.263
506.072
505.876
505.677
505.475
505.271
505.066
504.862
504.659
504.459
504.261
504.067
503.877
503.692
503.512
503.337
503.167
503.004
502.846
502.693
502.547
502.405
502.269
502.138
502.011
501.889
501.771
501.656
501.545
501.437
501.332
501.23
501.13
501.032
500.936
500.842
500.75
500.659
500.57
500.482
500.396
500.31
500.226
500.143
500.06
499.979
499.899
499.819
499.741
499.663
499.586
499.51
499.435
499.361
499.287
499.215
499.143
499.072
499.002
498.933
498.865
498.797
498.731
498.665
498.6
498.536
498.473
498.411
498.35
498.29
498.231
498.173
498.115
498.059
498.004
497.95
497.897
497.844
497.793
497.743
497.695
497.647
497.6
497.555
497.51
497.467
497.425
497.384
497.345
497.306
497.269
497.233
497.198
497.164
497.131
497.1
497.069
497.04
497.012
496.985
496.959
496.933
496.909
496.886
496.863
496.841
496.82
496.8
496.779
496.76
496.741
496.722
496.703
496.684
496.666
496.647
496.629
496.61
496.592
496.573
496.554
496.536
496.518
496.501
496.484
496.468
496.455
496.443
496.434
496.428
496.427
496.431
496.442
496.46
496.487
496.524
496.573
496.636
496.714
496.809
496.923
497.058
497.216
497.398
497.607
497.843
498.108
498.402
498.726
507.435
507.414
507.372
507.31
507.228
507.127
507.009
506.875
506.727
506.568
506.399
506.222
506.039
505.85
505.658
505.462
505.264
505.065
504.866
504.668
504.472
504.278
504.087
503.9
503.717
503.539
503.365
503.196
503.033
502.875
502.723
502.575
502.433
502.296
502.163
502.035
501.911
501.791
501.675
501.562
501.453
501.346
501.243
501.141
501.042
500.945
500.85
500.756
500.665
500.574
500.486
500.398
500.312
500.226
500.142
500.059
499.977
499.896
499.816
499.736
499.658
499.58
499.503
499.427
499.352
499.278
499.204
499.132
499.06
498.989
498.918
498.849
498.78
498.712
498.645
498.579
498.514
498.449
498.385
498.322
498.26
498.199
498.139
498.079
498.021
497.963
497.906
497.85
497.795
497.741
497.688
497.635
497.584
497.533
497.484
497.435
497.387
497.34
497.294
497.249
497.205
497.162
497.119
497.078
497.037
496.997
496.957
496.919
496.881
496.843
496.806
496.77
496.734
496.699
496.663
496.628
496.593
496.558
496.523
496.488
496.452
496.416
496.38
496.343
496.305
496.266
496.227
496.186
496.145
496.103
496.059
496.015
495.969
495.923
495.877
495.83
495.784
495.738
495.693
495.65
495.609
495.572
495.539
495.511
495.491
495.479
495.476
495.486
495.509
495.547
495.603
495.678
495.776
495.898
496.046
496.223
496.431
496.67
496.944
497.252
507.34
507.32
507.281
507.223
507.146
507.051
506.939
506.812
506.672
506.52
506.358
506.188
506.011
505.828
505.641
505.451
505.258
505.064
504.869
504.675
504.482
504.291
504.103
503.918
503.737
503.56
503.388
503.22
503.057
502.899
502.746
502.598
502.455
502.317
502.183
502.054
501.929
501.808
501.691
501.577
501.466
501.358
501.253
501.15
501.05
500.952
500.855
500.761
500.668
500.577
500.487
500.399
500.312
500.226
500.141
500.057
499.974
499.892
499.811
499.731
499.652
499.573
499.496
499.419
499.343
499.268
499.193
499.12
499.047
498.975
498.903
498.832
498.763
498.693
498.625
498.557
498.49
498.424
498.359
498.294
498.23
498.167
498.104
498.042
497.981
497.921
497.862
497.803
497.745
497.688
497.631
497.575
497.52
497.466
497.412
497.359
497.306
497.255
497.204
497.153
497.103
497.054
497.005
496.957
496.909
496.861
496.814
496.767
496.721
496.674
496.628
496.581
496.534
496.488
496.44
496.393
496.345
496.296
496.246
496.196
496.145
496.092
496.038
495.982
495.925
495.866
495.806
495.743
495.679
495.612
495.544
495.473
495.4
495.326
495.25
495.172
495.093
495.014
494.935
494.856
494.778
494.703
494.631
494.564
494.502
494.449
494.404
494.37
494.35
494.345
494.357
494.39
494.446
494.527
494.636
494.776
494.949
495.157
495.402
495.687
507.266
507.247
507.209
507.154
507.081
506.99
506.884
506.762
506.628
506.481
506.325
506.16
505.988
505.81
505.627
505.441
505.252
505.062
504.871
504.68
504.489
504.301
504.115
503.932
503.752
503.576
503.405
503.238
503.075
502.917
502.764
502.616
502.473
502.334
502.199
502.069
501.943
501.821
501.702
501.587
501.475
501.366
501.26
501.157
501.055
500.956
500.859
500.764
500.67
500.578
500.488
500.398
500.31
500.224
500.138
500.054
499.97
499.887
499.806
499.725
499.645
499.566
499.487
499.41
499.333
499.257
499.181
499.107
499.033
498.959
498.887
498.815
498.744
498.673
498.604
498.534
498.466
498.398
498.331
498.264
498.199
498.133
498.069
498.005
497.941
497.879
497.816
497.755
497.694
497.633
497.574
497.514
497.455
497.397
497.339
497.282
497.225
497.169
497.112
497.057
497.001
496.946
496.891
496.836
496.781
496.726
496.671
496.616
496.56
496.505
496.448
496.392
496.335
496.277
496.218
496.158
496.096
496.034
495.97
495.904
495.837
495.768
495.696
495.622
495.546
495.467
495.385
495.3
495.212
495.121
495.027
494.93
494.829
494.725
494.619
494.51
494.398
494.284
494.169
494.053
493.937
493.822
493.709
493.599
493.494
493.396
493.305
493.226
493.158
493.106
493.072
493.058
493.067
493.103
493.168
493.265
493.398
493.569
493.781
494.036
507.211
507.192
507.156
507.103
507.032
506.945
506.842
506.725
506.594
506.452
506.3
506.139
505.97
505.796
505.617
505.434
505.248
505.06
504.871
504.682
504.494
504.308
504.123
503.942
503.763
503.588
503.417
503.251
503.088
502.93
502.777
502.629
502.485
502.345
502.21
502.08
501.953
501.83
501.71
501.594
501.482
501.372
501.265
501.16
501.058
500.958
500.861
500.765
500.67
500.578
500.486
500.396
500.308
500.221
500.134
500.049
499.965
499.882
499.799
499.718
499.637
499.557
499.478
499.399
499.322
499.245
499.168
499.093
499.018
498.944
498.87
498.797
498.725
498.653
498.582
498.511
498.441
498.372
498.303
498.234
498.167
498.099
498.033
497.966
497.901
497.835
497.771
497.706
497.642
497.579
497.516
497.453
497.39
497.328
497.266
497.205
497.143
497.082
497.021
496.959
496.898
496.837
496.776
496.714
496.652
496.59
496.527
496.464
496.4
496.335
496.27
496.203
496.135
496.066
495.995
495.923
495.849
495.773
495.694
495.614
495.53
495.444
495.355
495.263
495.167
495.068
494.964
494.857
494.746
494.63
494.51
494.386
494.257
494.124
493.986
493.844
493.698
493.549
493.397
493.242
493.086
492.929
492.772
492.618
492.466
492.32
492.181
492.051
491.933
491.83
491.744
491.678
491.636
491.621
491.637
491.688
491.776
491.905
492.078
492.299
507.174
507.156
507.121
507.069
507
506.915
506.815
506.7
506.572
506.432
506.283
506.124
505.958
505.786
505.609
505.428
505.244
505.058
504.871
504.684
504.497
504.312
504.129
503.948
503.77
503.596
503.425
503.259
503.096
502.939
502.785
502.637
502.492
502.353
502.217
502.086
501.958
501.835
501.715
501.598
501.485
501.375
501.267
501.162
501.059
500.959
500.86
500.764
500.669
500.575
500.484
500.393
500.304
500.216
500.129
500.043
499.959
499.875
499.792
499.709
499.628
499.547
499.468
499.388
499.31
499.232
499.155
499.078
499.002
498.927
498.852
498.778
498.705
498.631
498.559
498.487
498.415
498.344
498.274
498.204
498.134
498.065
497.996
497.927
497.859
497.792
497.724
497.657
497.59
497.524
497.457
497.391
497.325
497.259
497.193
497.127
497.061
496.995
496.929
496.862
496.796
496.728
496.661
496.593
496.524
496.454
496.384
496.313
496.24
496.167
496.091
496.015
495.937
495.856
495.774
495.69
495.603
495.513
495.42
495.324
495.225
495.123
495.016
494.905
494.79
494.671
494.546
494.416
494.281
494.141
493.995
493.843
493.685
493.521
493.352
493.176
492.995
492.809
492.619
492.424
492.225
492.024
491.822
491.62
491.419
491.222
491.03
490.847
490.674
490.514
490.371
490.249
490.151
490.08
490.042
490.039
490.077
490.158
490.288
490.469
507.156
507.138
507.104
507.052
506.984
506.9
506.801
506.687
506.56
506.422
506.274
506.117
505.952
505.781
505.605
505.425
505.242
505.057
504.871
504.684
504.498
504.313
504.131
503.95
503.773
503.599
503.428
503.262
503.1
502.942
502.788
502.64
502.495
502.355
502.219
502.088
501.96
501.836
501.716
501.599
501.485
501.374
501.266
501.161
501.057
500.956
500.858
500.761
500.665
500.572
500.479
500.388
500.299
500.21
500.123
500.037
499.951
499.867
499.783
499.7
499.618
499.537
499.456
499.377
499.297
499.219
499.141
499.063
498.986
498.91
498.834
498.759
498.684
498.61
498.536
498.462
498.389
498.317
498.244
498.172
498.101
498.03
497.959
497.888
497.818
497.747
497.677
497.608
497.538
497.468
497.399
497.329
497.259
497.189
497.119
497.049
496.979
496.908
496.837
496.765
496.693
496.62
496.546
496.472
496.396
496.319
496.242
496.162
496.081
495.999
495.914
495.828
495.739
495.648
495.554
495.458
495.358
495.255
495.148
495.037
494.923
494.803
494.679
494.55
494.416
494.276
494.13
493.978
493.819
493.653
493.481
493.301
493.114
492.919
492.717
492.508
492.291
492.067
491.836
491.599
491.357
491.11
490.859
490.607
490.353
490.102
489.853
489.611
489.378
489.158
488.953
488.768
488.607
488.475
488.375
488.314
488.294
488.323
488.403
488.539
507.156
507.138
507.103
507.052
506.984
506.9
506.8
506.687
506.56
506.422
506.273
506.116
505.952
505.781
505.604
505.424
505.241
505.056
504.87
504.683
504.497
504.312
504.13
503.949
503.771
503.597
503.427
503.26
503.098
502.94
502.787
502.638
502.493
502.353
502.217
502.085
501.957
501.833
501.713
501.596
501.482
501.371
501.262
501.157
501.053
500.952
500.853
500.756
500.66
500.566
500.473
500.382
500.292
500.203
500.116
500.029
499.943
499.858
499.774
499.69
499.608
499.526
499.445
499.364
499.284
499.204
499.126
499.047
498.969
498.892
498.815
498.739
498.663
498.587
498.512
498.437
498.362
498.288
498.214
498.141
498.067
497.994
497.921
497.848
497.776
497.703
497.63
497.558
497.485
497.413
497.34
497.267
497.194
497.12
497.046
496.972
496.897
496.822
496.745
496.669
496.591
496.512
496.433
496.352
496.269
496.185
496.1
496.013
495.924
495.832
495.739
495.643
495.544
495.442
495.337
495.228
495.116
494.999
494.879
494.753
494.623
494.487
494.346
494.199
494.045
493.885
493.717
493.543
493.36
493.169
492.97
492.762
492.546
492.32
492.084
491.84
491.586
491.323
491.051
490.77
490.482
490.186
489.885
489.579
489.27
488.959
488.65
488.345
488.047
487.76
487.487
487.233
487.003
486.801
486.633
486.505
486.422
486.389
486.413
486.498
507.173
507.155
507.12
507.068
506.999
506.914
506.813
506.698
506.57
506.431
506.281
506.123
505.957
505.784
505.607
505.426
505.242
505.056
504.869
504.681
504.495
504.309
504.125
503.944
503.766
503.592
503.421
503.254
503.092
502.934
502.78
502.631
502.487
502.346
502.211
502.079
501.951
501.827
501.707
501.589
501.475
501.364
501.256
501.15
501.047
500.946
500.846
500.749
500.653
500.559
500.466
500.375
500.284
500.195
500.107
500.02
499.934
499.848
499.763
499.68
499.596
499.514
499.432
499.351
499.27
499.19
499.11
499.031
498.952
498.874
498.796
498.718
498.641
498.564
498.488
498.411
498.335
498.26
498.184
498.109
498.034
497.958
497.883
497.808
497.733
497.658
497.583
497.508
497.433
497.357
497.281
497.205
497.128
497.051
496.973
496.895
496.815
496.735
496.655
496.573
496.49
496.405
496.32
496.232
496.143
496.053
495.96
495.865
495.768
495.668
495.565
495.459
495.35
495.238
495.122
495.001
494.876
494.747
494.612
494.473
494.327
494.175
494.017
493.851
493.679
493.498
493.309
493.112
492.906
492.69
492.464
492.228
491.981
491.723
491.454
491.174
490.882
490.579
490.264
489.938
489.602
489.256
488.901
488.538
488.17
487.797
487.422
487.049
486.68
486.32
485.972
485.642
485.334
485.055
484.81
484.606
484.45
484.349
484.308
484.334
507.209
507.19
507.154
507.101
507.03
506.943
506.84
506.722
506.592
506.45
506.297
506.136
505.967
505.793
505.613
505.43
505.244
505.056
504.867
504.678
504.49
504.303
504.118
503.936
503.757
503.582
503.411
503.244
503.081
502.923
502.769
502.62
502.475
502.335
502.2
502.068
501.94
501.817
501.697
501.58
501.466
501.355
501.247
501.142
501.038
500.937
500.838
500.74
500.645
500.55
500.457
500.366
500.275
500.186
500.097
500.01
499.923
499.837
499.752
499.668
499.584
499.501
499.419
499.337
499.255
499.174
499.094
499.014
498.934
498.855
498.776
498.697
498.619
498.541
498.463
498.385
498.308
498.231
498.153
498.076
497.999
497.922
497.845
497.768
497.691
497.614
497.536
497.458
497.38
497.301
497.222
497.143
497.063
496.982
496.9
496.818
496.734
496.65
496.564
496.477
496.389
496.299
496.208
496.114
496.019
495.921
495.821
495.719
495.614
495.505
495.394
495.279
495.16
495.037
494.91
494.778
494.641
494.498
494.35
494.196
494.035
493.867
493.692
493.509
493.317
493.117
492.907
492.687
492.457
492.216
491.963
491.699
491.422
491.132
490.829
490.512
490.182
489.837
489.478
489.106
488.72
488.321
487.909
487.487
487.055
486.615
486.171
485.724
485.278
484.837
484.406
483.991
483.597
483.231
482.899
482.61
482.372
482.191
482.076
482.035
507.263
507.244
507.206
507.151
507.078
506.987
506.881
506.759
506.624
506.478
506.321