/*--------------------------------*- C++ -*----------------------------------*\
| =========                 |                                                 |
| \\      /  F ield         | OpenFOAM: The Open Source CFD Toolbox           |
|  \\    /   O peration     | Version:  2306                                  |
|   \\  /    A nd           | Website:  www.openfoam.com                      |
|    \\/     M anipulation  |                                                 |
\*---------------------------------------------------------------------------*/
FoamFile
{
    version     2.0;
    format      ascii;
    arch        "LSB;label=32;scalar=64";
    class       surfaceScalarField;
    location    "0.475";
    object      phi;
}
// * * * * * * * * * * * * * * * * * * * * * * * * * * * * * * * * * * * * * //

dimensions      [0 3 -1 0 0 0 0];

oriented        oriented;

internalField   nonuniform List<scalar> 
34640
(
0.0049244
7.55987e-05
0.00478599
0.000138414
0.00463052
0.000155467
0.00447385
0.000156669
0.00431583
0.000158023
0.00415467
0.000161162
0.00399075
0.00016392
0.00382542
0.00016533
0.00366031
0.000165105
0.00349681
0.000163497
0.00333583
0.000160981
0.00317797
0.000157866
0.00302375
0.000154217
0.00287376
0.000149991
0.00272862
0.000145135
0.00258899
0.000139631
0.00245555
0.000133441
0.0023289
0.000126649
0.00220941
0.00011949
0.00209747
0.000111938
0.0019934
0.000104074
0.00189739
9.60083e-05
0.00180953
8.78638e-05
0.00172976
7.97693e-05
0.00165791
7.18522e-05
0.00159368
6.42317e-05
0.00153666
5.70119e-05
0.00148639
5.02781e-05
0.00144229
4.40923e-05
0.0014038
3.84943e-05
0.0013703
3.35006e-05
0.00134119
2.91084e-05
0.00131589
2.5297e-05
0.00129386
2.2034e-05
0.00127458
1.92765e-05
0.00125761
1.69765e-05
0.00124253
1.50789e-05
0.00122901
1.352e-05
0.00121676
1.225e-05
0.00120553
1.12285e-05
0.00119511
1.04187e-05
0.00118532
9.78526e-06
0.00117603
9.29552e-06
0.00116711
8.92042e-06
0.00115847
8.63517e-06
0.00115005
8.41918e-06
0.0011418
8.25562e-06
0.00113367
8.13092e-06
0.00112563
8.03423e-06
0.00111768
7.95703e-06
0.00110978
7.89275e-06
0.00110195
7.83645e-06
0.00109416
7.78451e-06
0.00108643
7.73445e-06
0.00107874
7.68462e-06
0.00107111
7.63406e-06
0.00106353
7.58234e-06
0.001056
7.5294e-06
0.00104852
7.47547e-06
0.0010411
7.42098e-06
0.00103374
7.36649e-06
0.00102642
7.31265e-06
0.00101916
7.26014e-06
0.00101195
7.20969e-06
0.00100479
7.16198e-06
0.000997673
7.11772e-06
0.000990596
7.07754e-06
0.000983554
7.04209e-06
0.000976542
7.01193e-06
0.000969554
6.98762e-06
0.000962584
6.96967e-06
0.000955626
6.95851e-06
0.000948671
6.95456e-06
0.000941713
6.95824e-06
0.000934743
6.96997e-06
0.000927753
6.99014e-06
0.000920734
7.01917e-06
0.000913676
7.05741e-06
0.000906571
7.10525e-06
0.000899408
7.16303e-06
0.000892177
7.23112e-06
0.000884867
7.30987e-06
0.000877467
7.39967e-06
0.000869966
7.50087e-06
0.000862353
7.61385e-06
0.000854614
7.73899e-06
0.000846737
7.87669e-06
0.00083871
8.02735e-06
0.000830518
8.19136e-06
0.000822149
8.36913e-06
0.000813588
8.56109e-06
0.00080482
8.76764e-06
0.000795831
8.98918e-06
0.000786605
9.22613e-06
0.000777126
9.47885e-06
0.000767378
9.74771e-06
0.000757345
1.00331e-05
0.00074701
1.03352e-05
0.000736356
1.06543e-05
0.000725365
1.09907e-05
0.000714021
1.13444e-05
0.000702305
1.17155e-05
0.000690201
1.21039e-05
0.000677692
1.25092e-05
0.000664761
1.29312e-05
0.000651391
1.33696e-05
0.000637568
1.38236e-05
0.000623275
1.42922e-05
0.000608501
1.47744e-05
0.000593232
1.52685e-05
0.000577459
1.57732e-05
0.000561173
1.62857e-05
0.000544369
1.68038e-05
0.000527045
1.73246e-05
0.0005092
1.78444e-05
0.000490841
1.83592e-05
0.000471977
1.88646e-05
0.000452621
1.93555e-05
0.000432795
1.98263e-05
0.000412524
2.02708e-05
0.000391842
2.06824e-05
0.000370788
2.10541e-05
0.000349409
2.13784e-05
0.000327761
2.16479e-05
0.000305907
2.18549e-05
0.000283914
2.19922e-05
0.000261862
2.20528e-05
0.000239831
2.20306e-05
0.00021791
2.19208e-05
0.000196191
2.17194e-05
0.000174766
2.14244e-05
0.000153732
2.10347e-05
0.000133181
2.05509e-05
0.000113206
1.99745e-05
9.3899e-05
1.93073e-05
7.53485e-05
1.85505e-05
5.76444e-05
1.77041e-05
4.08772e-05
1.67673e-05
2.51366e-05
1.57406e-05
1.05079e-05
1.46287e-05
-2.93763e-06
1.34455e-05
-1.5174e-05
1.22364e-05
-2.61886e-05
1.10146e-05
-3.60245e-05
9.8359e-06
-4.47601e-05
8.73561e-06
-5.24777e-05
7.71756e-06
-5.92282e-05
6.75045e-06
-6.50174e-05
5.78924e-06
-6.9818e-05
4.8006e-06
-7.36208e-05
3.80276e-06
-7.65035e-05
2.88266e-06
-7.8633e-05
2.12952e-06
-8.01854e-05
1.55231e-06
-8.12353e-05
1.04996e-06
-8.17777e-05
5.42422e-07
-8.1854e-05
7.63168e-08
-8.15979e-05
-2.56098e-07
-8.11311e-05
-4.66737e-07
-8.04495e-05
-6.8163e-07
-9.88358e-07
-7.94611e-05
0.00503752
3.80748e-05
0.0050774
9.85347e-05
0.00509715
0.00013572
0.00510102
0.000152795
0.00509795
0.000161096
0.00509063
0.000168478
0.0050778
0.000176756
0.00505833
0.000184797
0.00503218
0.000191259
0.005
0.000195671
0.00496268
0.000198301
0.00492096
0.00019959
0.00487537
0.000199808
0.00482632
0.000199041
0.00477418
0.000197271
0.00471936
0.000194458
0.00466221
0.000190592
0.00460311
0.000185742
0.0045426
0.000180007
0.00448107
0.000173462
0.00441895
0.000166198
0.00435662
0.000158335
0.00429447
0.000150017
0.00423284
0.0001414
0.00417205
0.000132643
0.00411238
0.000123901
0.00405407
0.000115319
0.00399732
0.000107024
0.00394229
9.91229e-05
0.00388909
9.1697e-05
0.00383779
8.48026e-05
0.00378842
7.84741e-05
0.003741
7.27222e-05
0.00369549
6.75419e-05
0.00365185
6.2911e-05
0.00361002
5.88087e-05
0.00356986
5.52408e-05
0.00353133
5.20458e-05
0.00349437
4.92168e-05
0.00345887
4.67295e-05
0.00342474
4.45463e-05
0.0033919
4.26293e-05
0.00336025
4.09426e-05
0.00332972
3.94533e-05
0.00330022
3.81319e-05
0.00327168
3.69528e-05
0.00324405
3.58936e-05
0.00321724
3.49356e-05
0.00319121
3.40627e-05
0.00316591
3.32616e-05
0.00314128
3.25211e-05
0.00311728
3.18323e-05
0.00309388
3.11877e-05
0.00307103
3.05817e-05
0.00304871
3.00096e-05
0.00302688
2.9468e-05
0.0030055
2.89541e-05
0.00298457
2.84662e-05
0.00296404
2.80027e-05
0.0029439
2.75628e-05
0.00292412
2.71457e-05
0.00290468
2.67512e-05
0.00288556
2.63792e-05
0.00286674
2.60296e-05
0.0028482
2.57028e-05
0.00282992
2.53989e-05
0.00281188
2.51183e-05
0.00279406
2.48614e-05
0.00277644
2.46286e-05
0.00275901
2.44206e-05
0.00274174
2.42377e-05
0.00272462
2.40803e-05
0.00270763
2.39489e-05
0.00269074
2.38441e-05
0.00267394
2.37666e-05
0.00265722
2.37171e-05
0.00264054
2.36962e-05
0.00262389
2.37048e-05
0.00260725
2.37436e-05
0.0025906
2.38134e-05
0.00257392
2.39151e-05
0.00255718
2.40496e-05
0.00254036
2.4218e-05
0.00252344
2.44212e-05
0.00250639
2.46604e-05
0.0024892
2.49367e-05
0.00247182
2.52514e-05
0.00245424
2.56057e-05
0.00243643
2.6001e-05
0.00241836
2.64388e-05
0.0024
2.69206e-05
0.00238132
2.74478e-05
0.00236229
2.80222e-05
0.00234287
2.86453e-05
0.00232303
2.9319e-05
0.00230273
3.0045e-05
0.00228194
3.08251e-05
0.00226062
3.1661e-05
0.00223872
3.25546e-05
0.0022162
3.35077e-05
0.00219302
3.4522e-05
0.00216914
3.55992e-05
0.0021445
3.67408e-05
0.00211906
3.79483e-05
0.00209277
3.92219e-05
0.00206558
4.05639e-05
0.00203743
4.19753e-05
0.00200826
4.34562e-05
0.00197803
4.50065e-05
0.00194667
4.66256e-05
0.00191413
4.83135e-05
0.00188035
5.00679e-05
0.00184527
5.18867e-05
0.00180882
5.37665e-05
0.00177097
5.57026e-05
0.00173164
5.76895e-05
0.00169078
5.97202e-05
0.00164835
6.17863e-05
0.0016043
6.38775e-05
0.00155859
6.59817e-05
0.00151119
6.80848e-05
0.00146207
7.01705e-05
0.00141123
7.22199e-05
0.00135866
7.42117e-05
0.0013044
7.61218e-05
0.00124847
7.79234e-05
0.00119093
7.95866e-05
0.00113188
8.1079e-05
0.00107144
8.23651e-05
0.00100975
8.34073e-05
0.00094701
8.41656e-05
0.000883446
8.45989e-05
0.000819331
8.46661e-05
0.000754979
8.4327e-05
0.000690741
8.35447e-05
0.000627003
8.22883e-05
0.000564173
8.05346e-05
0.000502667
7.82732e-05
0.000442897
7.55105e-05
0.000385251
7.22745e-05
0.000330082
6.86152e-05
0.000277701
6.46166e-05
0.000228355
6.03612e-05
0.000182241
5.59497e-05
0.00013951
5.14661e-05
0.000100262
4.69655e-05
6.45311e-05
4.24818e-05
3.2296e-05
3.80242e-05
3.6694e-06
3.34272e-05
-2.14567e-05
2.89288e-05
-4.32571e-05
2.4683e-05
-6.21319e-05
2.10042e-05
-7.83277e-05
1.77482e-05
-9.19834e-05
1.47057e-05
-0.000103209
1.17686e-05
-0.000112219
9.08615e-06
-0.000119356
6.88053e-06
-0.000124914
5.09184e-06
-0.000129004
3.40768e-06
1.62919e-06
-0.000131621
0.00501445
2.36271e-05
0.00504447
6.85092e-05
0.00507418
0.000106011
0.00509859
0.000128387
0.00511781
0.000141876
0.00513503
0.000151254
0.00515196
0.000159827
0.00516818
0.000168575
0.00518272
0.000176723
0.00519492
0.000183471
0.00520465
0.000188571
0.00521208
0.000192157
0.0052174
0.000194494
0.00522066
0.000195782
0.00522183
0.0001961
0.00522084
0.000195442
0.00521764
0.000193792
0.00521223
0.000191157
0.00520467
0.000187564
0.00519503
0.000183104
0.00518338
0.000177851
0.00516981
0.000171901
0.00515446
0.000165372
0.00513746
0.0001584
0.00511898
0.000151124
0.00509919
0.000143688
0.00507828
0.000136229
0.00505643
0.000128873
0.00503382
0.000121731
0.00501062
0.000114896
0.00498699
0.000108436
0.00496306
0.000102404
0.00493895
9.68287e-05
0.00491477
9.17238e-05
0.00489059
8.7089e-05
0.00486649
8.29138e-05
0.00484256
7.91712e-05
0.0048188
7.58064e-05
0.00479523
7.27854e-05
0.00477187
7.00832e-05
0.00474875
6.76726e-05
0.00472585
6.55232e-05
0.00470319
6.36038e-05
0.00468076
6.18847e-05
0.00465856
6.03384e-05
0.00463657
5.89405e-05
0.00461479
5.76696e-05
0.00459322
5.6507e-05
0.00457185
5.5437e-05
0.00455066
5.44461e-05
0.00452966
5.35228e-05
0.00450883
5.26578e-05
0.00448818
5.18435e-05
0.00446769
5.10737e-05
0.00444735
5.03437e-05
0.00442717
4.96496e-05
0.00440714
4.89887e-05
0.00438724
4.83589e-05
0.00436749
4.77588e-05
0.00434786
4.71875e-05
0.00432836
4.66446e-05
0.00430899
4.61298e-05
0.00428972
4.56433e-05
0.00427057
4.51856e-05
0.00425151
4.47571e-05
0.00423255
4.43585e-05
0.00421368
4.39906e-05
0.00419489
4.36544e-05
0.00417616
4.33507e-05
0.0041575
4.30808e-05
0.0041389
4.28459e-05
0.00412033
4.26466e-05
0.00410179
4.2484e-05
0.00408328
4.23595e-05
0.00406477
4.22746e-05
0.00404626
4.22306e-05
0.00402772
4.22289e-05
0.00400916
4.22713e-05
0.00399054
4.23592e-05
0.00397186
4.24944e-05
0.0039531
4.26787e-05
0.00393423
4.29141e-05
0.00391525
4.32024e-05
0.00389612
4.35458e-05
0.00387684
4.39466e-05
0.00385737
4.4407e-05
0.00383769
4.49295e-05
0.00381778
4.55168e-05
0.00379761
4.61715e-05
0.00377715
4.68966e-05
0.00375638
4.76951e-05
0.00373525
4.85702e-05
0.00371375
4.95252e-05
0.00369183
5.05635e-05
0.00366946
5.16888e-05
0.0036466
5.29049e-05
0.00362321
5.42156e-05
0.00359925
5.5625e-05
0.00357467
5.71372e-05
0.00354942
5.87566e-05
0.00352345
6.04874e-05
0.00349672
6.2334e-05
0.00346916
6.43007e-05
0.00344071
6.63919e-05
0.00341132
6.86118e-05
0.00338092
7.09651e-05
0.00334944
7.34562e-05
0.00331681
7.6089e-05
0.00328295
7.88667e-05
0.00324778
8.17919e-05
0.00321123
8.48691e-05
0.00317319
8.80999e-05
0.00313359
9.14857e-05
0.00309233
9.50269e-05
0.00304931
9.87227e-05
0.00300443
0.000102571
0.00295758
0.000106568
0.00290866
0.000110709
0.00285755
0.000114985
0.00280415
0.000119388
0.00274833
0.000123903
0.00268999
0.000128515
0.002629
0.000133203
0.00256527
0.000137945
0.00249868
0.000142712
0.00242913
0.000147469
0.00235654
0.000152178
0.00228083
0.000156794
0.00220193
0.000161264
0.0021198
0.00016553
0.00203445
0.000169523
0.00194588
0.000173169
0.00185416
0.000176385
0.0017594
0.000179083
0.00166178
0.000181172
0.00156151
0.000182551
0.00145893
0.000183117
0.00135444
0.000182767
0.00124855
0.000181401
0.00114189
0.00017893
0.00103523
0.000175281
0.000929436
0.000170407
0.000825512
0.000164285
0.000724522
0.00015694
0.000627549
0.00014844
0.000535602
0.000138912
0.000449547
0.000128537
0.000370017
0.000117555
0.000297159
0.000106284
0.000230985
9.5103e-05
0.000171323
8.43448e-05
0.000118105
7.42221e-05
7.10192e-05
6.48344e-05
2.99336e-05
5.57912e-05
-5.44251e-06
4.71447e-05
-3.55677e-05
3.92114e-05
-6.11811e-05
3.2494e-05
-8.27441e-05
2.66548e-05
-0.000100538
2.12012e-05
1.59477e-05
-0.000114856
0.00500634
1.72883e-05
0.00502385
5.09989e-05
0.00504705
8.28141e-05
0.00506939
0.000106043
0.00508908
0.000122187
0.00510686
0.000133477
0.00512443
0.000142249
0.00514265
0.000150362
0.00516108
0.000158284
0.00517925
0.000165302
0.00519682
0.000171001
0.00521368
0.000175301
0.00522985
0.000178323
0.00524536
0.000180268
0.00526017
0.000181292
0.00527418
0.000181436
0.00528726
0.000180711
0.0052993
0.000179119
0.00531018
0.000176678
0.00531984
0.000173448
0.00532819
0.000169495
0.00533519
0.000164901
0.00534081
0.00015976
0.00534503
0.00015418
0.00534787
0.000148277
0.00534939
0.000142168
0.00534965
0.00013597
0.00534873
0.000129791
0.00534673
0.00012373
0.00534376
0.00011787
0.00533992
0.000112281
0.00533531
0.000107013
0.00533003
0.000102103
0.00532419
9.75694e-05
0.00531786
9.34204e-05
0.00531112
8.96483e-05
0.00530406
8.62365e-05
0.0052967
8.31634e-05
0.00528908
8.04015e-05
0.00528124
7.79256e-05
0.0052732
7.57118e-05
0.00526499
7.3736e-05
0.00525662
7.19731e-05
0.0052481
7.03983e-05
0.00523946
6.89878e-05
0.00523068
6.77198e-05
0.00522177
6.6575e-05
0.00521274
6.55361e-05
0.00520359
6.45883e-05
0.00519432
6.37188e-05
0.00518492
6.29168e-05
0.00517541
6.21731e-05
0.00516577
6.14803e-05
0.00515601
6.08322e-05
0.00514613
6.02238e-05
0.00513613
5.96513e-05
0.00512601
5.91119e-05
0.00511576
5.86033e-05
0.0051054
5.81242e-05
0.00509491
5.76736e-05
0.00508431
5.72511e-05
0.00507358
5.68567e-05
0.00506273
5.64906e-05
0.00505176
5.61535e-05
0.00504067
5.58461e-05
0.00502946
5.55693e-05
0.00501813
5.53244e-05
0.00500667
5.51127e-05
0.00499509
5.49355e-05
0.00498337
5.47945e-05
0.00497153
5.46913e-05
0.00495955
5.46273e-05
0.00494743
5.4604e-05
0.00493516
5.46236e-05
0.00492275
5.46881e-05
0.00491018
5.47995e-05
0.00489745
5.49601e-05
0.00488455
5.51723e-05
0.00487147
5.54383e-05
0.0048582
5.57609e-05
0.00484474
5.61427e-05
0.00483107
5.65866e-05
0.00481717
5.70955e-05
0.00480305
5.76725e-05
0.00478867
5.83211e-05
0.00477403
5.90447e-05
0.00475912
5.98469e-05
0.0047439
6.07317e-05
0.00472837
6.17033e-05
0.0047125
6.27657e-05
0.00469627
6.39238e-05
0.00467966
6.51821e-05
0.00466264
6.65459e-05
0.00464518
6.80202e-05
0.00462726
6.96107e-05
0.00460884
7.13233e-05
0.00458989
7.31637e-05
0.00457038
7.51386e-05
0.00455026
7.72544e-05
0.0045295
7.95179e-05
0.00450805
8.19363e-05
0.00448587
8.45168e-05
0.0044629
8.72669e-05
0.0044391
9.01943e-05
0.00441441
9.33069e-05
0.00438876
9.66129e-05
0.00436209
0.00010012
0.00433435
0.000103838
0.00430544
0.000107773
0.0042753
0.000111933
0.00424384
0.000116327
0.00421098
0.000120962
0.00417662
0.000125846
0.00414066
0.000130984
0.004103
0.000136382
0.00406353
0.000142043
0.00402213
0.000147973
0.00397866
0.00015417
0.00393301
0.000160636
0.00388503
0.000167368
0.00383458
0.00017436
0.00378149
0.000181603
0.0037256
0.000189086
0.00366676
0.00019679
0.00360477
0.000204696
0.00353947
0.000212775
0.00347065
0.000220994
0.00339814
0.000229312
0.00332172
0.000237678
0.00324122
0.000246034
0.00315643
0.000254311
0.00306717
0.000262429
0.00297327
0.000270287
0.00287457
0.000277784
0.00277092
0.000284814
0.00266223
0.000291241
0.00254843
0.000296921
0.0024295
0.000301699
0.00230549
0.000305407
0.00217655
0.000307871
0.00204292
0.000308907
0.001905
0.000308333
0.00176331
0.000305973
0.00161858
0.000301665
0.00147178
0.000295246
0.00132411
0.000286578
0.00117709
0.000275564
0.00103245
0.000262186
0.000892213
0.000246525
0.000758504
0.000228812
0.000633416
0.000209432
0.000518706
0.000188932
0.000415613
0.000167928
0.000324251
0.000147153
0.000243991
0.000127404
0.000173832
0.00010937
0.000112921
9.34053e-05
6.04271e-05
7.91489e-05
1.58224e-05
6.58059e-05
5.35387e-05
-2.17686e-05
0.00500365
1.36377e-05
0.00501435
4.03028e-05
0.00503119
6.59756e-05
0.00504934
8.78847e-05
0.00506702
0.00010451
0.00508362
0.000116874
0.00509961
0.000126267
0.00511581
0.000134163
0.00513256
0.00014153
0.00514965
0.000148212
0.00516675
0.000153904
0.00518365
0.000158393
0.0052003
0.00016168
0.00521667
0.0001639
0.00523276
0.000165197
0.00524854
0.000165656
0.00526393
0.000165322
0.00527883
0.000164218
0.00529314
0.00016237
0.00530677
0.00015982
0.00531963
0.000156628
0.00533167
0.000152865
0.00534282
0.000148614
0.00535303
0.000143963
0.0053623
0.00013901
0.00537062
0.000133852
0.005378
0.000128586
0.00538449
0.000123305
0.00539012
0.000118093
0.00539497
0.000113022
0.0053991
0.000108156
0.00540257
0.000103541
0.00540546
9.92121e-05
0.00540784
9.51909e-05
0.00540977
9.14872e-05
0.00541132
8.81e-05
0.00541253
8.50222e-05
0.00541345
8.22421e-05
0.00541411
7.97411e-05
0.00541454
7.74981e-05
0.00541476
7.54921e-05
0.00541479
7.37028e-05
0.00541466
7.21098e-05
0.00541436
7.06927e-05
0.00541392
6.94315e-05
0.00541333
6.83075e-05
0.0054126
6.73035e-05
0.00541174
6.64039e-05
0.00541073
6.55951e-05
0.00540958
6.48655e-05
0.00540829
6.42047e-05
0.00540686
6.36042e-05
0.00540529
6.30566e-05
0.00540356
6.2556e-05
0.00540169
6.20973e-05
0.00539966
6.16767e-05
0.00539749
6.12912e-05
0.00539515
6.09385e-05
0.00539266
6.06169e-05
0.00539001
6.03256e-05
0.00538719
6.00639e-05
0.00538422
5.98317e-05
0.00538108
5.96293e-05
0.00537778
5.94572e-05
0.00537431
5.93163e-05
0.00537067
5.92075e-05
0.00536686
5.91322e-05
0.00536288
5.90918e-05
0.00535873
5.90879e-05
0.0053544
5.91222e-05
0.00534989
5.91966e-05
0.00534521
5.93128e-05
0.00534034
5.9473e-05
0.00533528
5.96793e-05
0.00533004
5.99343e-05
0.0053246
6.02404e-05
0.00531896
6.06004e-05
0.00531311
6.10171e-05
0.00530706
6.14934e-05
0.00530079
6.20324e-05
0.00529429
6.26376e-05
0.00528756
6.33124e-05
0.0052806
6.40604e-05
0.00527339
6.48857e-05
0.00526592
6.57922e-05
0.00525818
6.67845e-05
0.00525016
6.78669e-05
0.00524184
6.90445e-05
0.00523322
7.03223e-05
0.00522428
7.17058e-05
0.00521501
7.32006e-05
0.00520538
7.48129e-05
0.00519537
7.6549e-05
0.00518498
7.84155e-05
0.00517417
8.04196e-05
0.00516292
8.25687e-05
0.00515122
8.48705e-05
0.00513902
8.73334e-05
0.00512631
8.99657e-05
0.00511305
9.27766e-05
0.00509921
9.57754e-05
0.00508476
9.89718e-05
0.00506965
0.000102376
0.00505384
0.000105999
0.0050373
0.000109851
0.00501997
0.000113944
0.0050018
0.000118289
0.00498274
0.000122899
0.00496273
0.000127786
0.0049417
0.000132962
0.00491958
0.000138439
0.00489632
0.000144231
0.00487181
0.00015035
0.00484599
0.000156808
0.00481875
0.000163617
0.00479001
0.000170788
0.00475965
0.000178332
0.00472756
0.000186258
0.00469362
0.000194575
0.0046577
0.000203289
0.00461966
0.000212404
0.00457934
0.000221922
0.00453658
0.000231842
0.00449121
0.000242159
0.00444305
0.000252864
0.00439188
0.000263941
0.0043375
0.000275372
0.00427969
0.000287128
0.00421819
0.000299174
0.00415276
0.000311465
0.00408312
0.000323946
0.004009
0.00033655
0.0039301
0.000349194
0.00384609
0.000361788
0.00375668
0.000374226
0.00366154
0.000386384
0.00356034
0.000398119
0.00345277
0.000409268
0.00333852
0.000419653
0.00321732
0.000429073
0.00308892
0.000437308
0.00295315
0.000444103
0.00280993
0.000449197
0.00265923
0.000452356
0.00250121
0.000453267
0.00233617
0.000451624
0.00216461
0.000447125
0.0019873
0.000439491
0.00180534
0.000428485
0.00162022
0.000413937
0.00143393
0.000395722
0.00124907
0.000373795
0.00106875
0.000348238
0.000896545
0.000319362
0.000736129
0.000287821
0.000590809
0.00025469
0.000462925
0.000221289
0.00035306
0.000189014
0.000259653
0.000159213
0.000132901
0.000180291
0.00500249
1.11481e-05
0.00500982
3.29718e-05
0.00502171
5.40907e-05
0.00503621
7.33807e-05
0.00505142
8.93024e-05
0.00506648
0.000101813
0.00508114
0.000111608
0.00509573
0.000119565
0.00511075
0.000126515
0.00512619
0.000132767
0.00514189
0.00013821
0.00515762
0.00014266
0.00517324
0.000146058
0.00518869
0.000148448
0.00520396
0.000149929
0.00521902
0.000150597
0.00523382
0.00015052
0.0052483
0.000149741
0.00526238
0.000148295
0.00527597
0.000146224
0.00528902
0.000143579
0.00530146
0.000140422
0.00531325
0.000136825
0.00532435
0.000132865
0.00533474
0.000128625
0.0053444
0.000124188
0.00535335
0.000119636
0.00536161
0.000115048
0.0053692
0.000110498
0.00537618
0.000106047
0.00538258
0.000101752
0.00538847
9.7655e-05
0.00539389
9.37893e-05
0.0053989
9.01768e-05
0.00540356
8.68294e-05
0.00540791
8.37515e-05
0.00541199
8.0941e-05
0.00541584
7.83911e-05
0.00541949
7.60894e-05
0.00542297
7.40199e-05
0.0054263
7.21652e-05
0.00542949
7.05082e-05
0.00543257
6.9032e-05
0.00543555
6.77198e-05
0.00543842
6.65551e-05
0.00544121
6.55219e-05
0.00544391
6.46052e-05
0.00544652
6.37912e-05
0.00544905
6.30679e-05
0.00545149
6.24243e-05
0.00545384
6.18511e-05
0.0054561
6.13403e-05
0.00545828
6.0885e-05
0.00546035
6.04794e-05
0.00546233
6.01187e-05
0.00546421
5.97991e-05
0.00546598
5.95175e-05
0.00546765
5.92716e-05
0.00546921
5.90598e-05
0.00547065
5.88809e-05
0.00547198
5.87344e-05
0.00547319
5.86199e-05
0.00547428
5.85377e-05
0.00547525
5.84883e-05
0.0054761
5.84725e-05
0.00547681
5.84913e-05
0.0054774
5.85459e-05
0.00547785
5.86378e-05
0.00547817
5.87687e-05
0.00547835
5.89403e-05
0.0054784
5.91545e-05
0.0054783
5.94135e-05
0.00547805
5.97195e-05
0.00547765
6.00749e-05
0.00547711
6.04824e-05
0.0054764
6.09446e-05
0.00547554
6.14646e-05
0.00547451
6.20454e-05
0.00547331
6.26904e-05
0.00547194
6.34031e-05
0.00547039
6.4187e-05
0.00546866
6.50462e-05
0.00546673
6.59848e-05
0.00546461
6.70072e-05
0.00546229
6.81179e-05
0.00545975
6.93219e-05
0.00545699
7.06244e-05
0.005454
7.20308e-05
0.00545078
7.3547e-05
0.00544731
7.51791e-05
0.00544357
7.69336e-05
0.00543957
7.88174e-05
0.00543528
8.08378e-05
0.00543069
8.30024e-05
0.00542579
8.53193e-05
0.00542057
8.77971e-05
0.00541499
9.04448e-05
0.00540905
9.32719e-05
0.00540273
9.62883e-05
0.005396
9.95045e-05
0.00538885
0.000102932
0.00538124
0.000106581
0.00537315
0.000110465
0.00536455
0.000114597
0.00535541
0.000118988
0.0053457
0.000123654
0.00533538
0.000128609
0.00532442
0.000133867
0.00531276
0.000139444
0.00530036
0.000145355
0.00528718
0.000151618
0.00527317
0.000158248
0.00525825
0.000165264
0.00524238
0.000172681
0.00522548
0.000180518
0.00520747
0.000188791
0.00518829
0.000197517
0.00516783
0.000206714
0.00514601
0.000216396
0.00512272
0.000226579
0.00509785
0.000237277
0.00507127
0.000248501
0.00504285
0.000260262
0.00501245
0.000272566
0.00497989
0.000285419
0.00494501
0.000298819
0.00490762
0.000312762
0.00486751
0.000327239
0.00482446
0.000342231
0.00477821
0.000357715
0.0047285
0.000373656
0.00467503
0.000390011
0.0046175
0.000406724
0.00455556
0.000423728
0.00448885
0.000440941
0.00441697
0.000458265
0.0043395
0.000475583
0.00425601
0.000492759
0.00416603
0.000509634
0.00406908
0.000526024
0.00396467
0.00054172
0.00385229
0.000556483
0.00373144
0.000570051
0.00360165
0.000582143
0.00346249
0.000592433
0.00331355
0.00060056
0.00315453
0.000606142
0.00298527
0.000608753
0.0028058
0.000607956
0.00261634
0.000603395
0.00241746
0.000594599
0.00221012
0.000581142
0.00199569
0.000562662
0.00177613
0.000538923
0.00155414
0.000509816
0.00133343
0.000475397
0.00111879
0.000435929
0.000915777
0.000392025
0.000730095
0.000344895
0.000296572
0.000566424
0.00500185
9.29959e-06
0.00500728
2.75387e-05
0.00501604
4.53323e-05
0.00502755
6.18686e-05
0.00504038
7.64704e-05
0.00505372
8.84758e-05
0.00506711
9.8215e-05
0.00508051
0.000106166
0.00509416
0.000112873
0.00510819
0.000118734
0.00512255
0.000123847
0.00513708
0.00012813
0.00515162
0.000131514
0.00516608
0.00013399
0.0051804
0.000135609
0.00519455
0.000136449
0.00520849
0.000136584
0.00522216
0.000136069
0.0052355
0.000134952
0.00524845
0.000133272
0.00526096
0.000131077
0.00527296
0.000128422
0.00528441
0.000125369
0.00529529
0.000121984
0.00530558
0.000118338
0.00531527
0.000114503
0.00532435
0.000110551
0.00533285
0.000106548
0.00534079
0.000102557
0.0053482
9.86343e-05
0.00535513
9.48279e-05
0.00536161
9.11772e-05
0.00536768
8.77126e-05
0.0053734
8.44559e-05
0.00537881
8.14211e-05
0.00538395
7.86153e-05
0.00538885
7.60399e-05
0.00539355
7.36912e-05
0.00539808
7.15612e-05
0.00540246
6.96382e-05
0.00540672
6.79087e-05
0.00541087
6.63588e-05
0.00541492
6.49746e-05
0.0054189
6.3742e-05
0.00542281
6.26474e-05
0.00542665
6.16772e-05
0.00543044
6.08186e-05
0.00543417
6.00597e-05
0.00543785
5.93896e-05
0.00544147
5.87987e-05
0.00544505
5.82783e-05
0.00544857
5.78212e-05
0.00545203
5.74209e-05
0.00545544
5.70721e-05
0.00545879
5.67702e-05
0.00546207
5.65116e-05
0.0054653
5.62933e-05
0.00546846
5.61131e-05
0.00547155
5.59693e-05
0.00547457
5.58608e-05
0.00547752
5.57869e-05
0.00548039
5.57474e-05
0.00548318
5.57425e-05
0.0054859
5.57725e-05
0.00548853
5.58383e-05
0.00549108
5.59409e-05
0.00549355
5.60815e-05
0.00549592
5.62615e-05
0.00549821
5.64827e-05
0.0055004
5.67469e-05
0.0055025
5.7056e-05
0.0055045
5.74123e-05
0.0055064
5.78181e-05
0.0055082
5.82759e-05
0.0055099
5.87885e-05
0.00551148
5.93588e-05
0.00551296
5.99898e-05
0.00551432
6.06849e-05
0.00551556
6.14476e-05
0.00551668
6.22815e-05
0.00551768
6.31906e-05
0.00551855
6.4179e-05
0.00551928
6.52512e-05
0.00551988
6.64117e-05
0.00552033
6.76656e-05
0.00552063
6.9018e-05
0.00552078
7.04746e-05
0.00552077
7.20412e-05
0.00552059
7.37239e-05
0.00552024
7.55295e-05
0.00551971
7.74649e-05
0.00551899
7.95374e-05
0.00551808
8.1755e-05
0.00551695
8.41258e-05
0.00551561
8.66586e-05
0.00551405
8.93626e-05
0.00551224
9.22475e-05
0.00551019
9.53238e-05
0.00550788
9.8602e-05
0.00550529
0.000102094
0.00550241
0.000105811
0.00549922
0.000109767
0.00549572
0.000113974
0.00549187
0.000118447
0.00548765
0.0001232
0.00548306
0.000128248
0.00547806
0.000133608
0.00547263
0.000139296
0.00546674
0.000145331
0.00546037
0.000151729
0.00545348
0.00015851
0.00544603
0.000165693
0.005438
0.000173299
0.00542933
0.000181347
0.00541999
0.00018986
0.00540992
0.000198858
0.00539908
0.000208363
0.0053874
0.000218396
0.00537481
0.000228981
0.00536125
0.000240137
0.00534664
0.000251887
0.00533089
0.00026425
0.00531391
0.000277245
0.00529559
0.000290889
0.00527581
0.000305199
0.00525444
0.000320187
0.00523134
0.000335862
0.00520635
0.000352231
0.00517929
0.000369293
0.00514996
0.000387044
0.00511814
0.000405473
0.00508359
0.000424559
0.00504604
0.000444276
0.00500518
0.000464582
0.0049607
0.000485429
0.00491221
0.00050675
0.00485933
0.000528467
0.00480161
0.000550479
0.00473857
0.000572669
0.0046697
0.000594893
0.00459444
0.000616986
0.00451217
0.000638751
0.00442225
0.000659966
0.00432403
0.000680372
0.00421678
0.000699676
0.0040998
0.000717539
0.00397237
0.000733578
0.00383376
0.000747363
0.00368328
0.000758431
0.00352038
0.000766297
0.00334457
0.00077041
0.00315553
0.000770184
0.00295321
0.000764976
0.00273792
0.000754217
0.00251037
0.000737369
0.00227194
0.000713821
0.00202475
0.000683124
0.0017717
0.000645071
0.00151691
0.000599689
0.000547331
0.00126615
0.00500144
7.86068e-06
0.00500568
2.33022e-05
0.00501255
3.84546e-05
0.00502174
5.26809e-05
0.00503256
6.56462e-05
0.00504425
7.67945e-05
0.00505635
8.61113e-05
0.00506867
9.38451e-05
0.00508122
0.000100324
0.00509409
0.000105864
0.00510729
0.000110645
0.00512073
0.000114692
0.00513428
0.000117966
0.00514782
0.000120444
0.00516129
0.000122144
0.00517462
0.000123118
0.00518777
0.000123429
0.0052007
0.00012314
0.00521336
0.000122299
0.00522568
0.000120951
0.00523761
0.000119141
0.00524912
0.000116917
0.00526016
0.000114332
0.00527069
0.000111444
0.00528072
0.000108315
0.00529021
0.000105006
0.00529919
0.000101578
0.00530764
9.80901e-05
0.00531561
9.45959e-05
0.0053231
9.11446e-05
0.00533015
8.77785e-05
0.00533679
8.45333e-05
0.00534306
8.14372e-05
0.00534901
7.85115e-05
0.00535466
7.57709e-05
0.00536005
7.32239e-05
0.00536522
7.08742e-05
0.00537019
6.87208e-05
0.00537499
6.67585e-05
0.00537965
6.49793e-05
0.00538418
6.33732e-05
0.00538861
6.19291e-05
0.00539295
6.06356e-05
0.00539721
5.94812e-05
0.00540141
5.84546e-05
0.00540554
5.75442e-05
0.00540962
5.67393e-05
0.00541365
5.60295e-05
0.00541763
5.54054e-05
0.00542157
5.48583e-05
0.00542547
5.43806e-05
0.00542933
5.39656e-05
0.00543314
5.36075e-05
0.00543691
5.33014e-05
0.00544064
5.30431e-05
0.00544432
5.28291e-05
0.00544796
5.26568e-05
0.00545155
5.2524e-05
0.00545509
5.24291e-05
0.00545858
5.2371e-05
0.00546201
5.23491e-05
0.0054654
5.23631e-05
0.00546873
5.24133e-05
0.005472
5.25e-05
0.00547521
5.2624e-05
0.00547837
5.27864e-05
0.00548146
5.29884e-05
0.00548449
5.32314e-05
0.00548746
5.35171e-05
0.00549036
5.38475e-05
0.00549319
5.42245e-05
0.00549595
5.46504e-05
0.00549864
5.51277e-05
0.00550126
5.56589e-05
0.0055038
5.62468e-05
0.00550626
5.68945e-05
0.00550865
5.76052e-05
0.00551095
5.83822e-05
0.00551317
5.92291e-05
0.0055153
6.01499e-05
0.00551734
6.11485e-05
0.00551929
6.22293e-05
0.00552115
6.33968e-05
0.0055229
6.46559e-05
0.00552456
6.60117e-05
0.0055261
6.74697e-05
0.00552754
6.90357e-05
0.00552887
7.07156e-05
0.00553008
7.25161e-05
0.00553116
7.4444e-05
0.00553212
7.65064e-05
0.00553295
7.87112e-05
0.00553364
8.10664e-05
0.00553418
8.35807e-05
0.00553458
8.62631e-05
0.00553482
8.91232e-05
0.00553489
9.21712e-05
0.0055348
9.54179e-05
0.00553453
9.88745e-05
0.00553407
0.000102553
0.00553341
0.000106466
0.00553255
0.000110627
0.00553148
0.00011505
0.00553017
0.000119749
0.00552863
0.00012474
0.00552684
0.000130039
0.00552479
0.000135663
0.00552246
0.00014163
0.00551983
0.000147959
0.00551689
0.000154668
0.00551362
0.000161779
0.00551
0.000169313
0.00550601
0.00017729
0.00550162
0.000185734
0.00549681
0.000194668
0.00549155
0.000204117
0.00548581
0.000214104
0.00547955
0.000224655
0.00547274
0.000235795
0.00546533
0.00024755
0.00545727
0.000259945
0.00544851
0.000273007
0.00543899
0.000286762
0.00542865
0.000301232
0.00541741
0.000316443
0.00540518
0.000332415
0.00539187
0.000349171
0.00537737
0.000366727
0.00536157
0.000385098
0.00534432
0.000404296
0.00532546
0.000424327
0.00530483
0.000445192
0.00528222
0.000466886
0.00525741
0.000489396
0.00523014
0.0005127
0.00520012
0.000536766
0.00516704
0.00056155
0.00513052
0.000586991
0.00509018
0.000613017
0.00504554
0.000639531
0.00499611
0.000666419
0.00494131
0.000693542
0.00488055
0.000720731
0.00481313
0.000747788
0.00473833
0.000774476
0.00465535
0.000800519