/*--------------------------------*- C++ -*----------------------------------*\
| =========                 |                                                 |
| \\      /  F ield         | OpenFOAM: The Open Source CFD Toolbox           |
|  \\    /   O peration     | Version:  2306                                  |
|   \\  /    A nd           | Website:  www.openfoam.com                      |
|    \\/     M anipulation  |                                                 |
\*---------------------------------------------------------------------------*/
FoamFile
{
    version     2.0;
    format      ascii;
    arch        "LSB;label=32;scalar=64";
    class       volVectorField;
    location    "0.475";
    object      U;
}
// * * * * * * * * * * * * * * * * * * * * * * * * * * * * * * * * * * * * * //

dimensions      [0 1 -1 0 0 0 0];

internalField   nonuniform List<vector> 
17600
(
(9.80708 0.0850068 0)
(9.62282 0.1805 0)
(9.41196 0.217949 0)
(9.14628 0.225578 0)
(8.83439 0.225099 0)
(8.49836 0.225384 0)
(8.15616 0.226736 0)
(7.81672 0.227128 0)
(7.48269 0.225219 0)
(7.15415 0.220818 0)
(6.83068 0.214448 0)
(6.51244 0.206752 0)
(6.20026 0.198159 0)
(5.89552 0.188852 0)
(5.59967 0.178846 0)
(5.31426 0.168128 0)
(5.04061 0.156696 0)
(4.78014 0.144612 0)
(4.53374 0.131893 0)
(4.30222 0.118627 0)
(4.08622 0.104996 0)
(3.88624 0.0912579 0)
(3.70254 0.0777036 0)
(3.53517 0.0646274 0)
(3.38387 0.052299 0)
(3.24816 0.0409442 0)
(3.1273 0.0307326 0)
(3.0204 0.02177 0)
(2.92639 0.0140991 0)
(2.84414 0.00770536 0)
(2.77244 0.00252824 0)
(2.71009 -0.00152641 0)
(2.65591 -0.0045725 0)
(2.60877 -0.00673457 0)
(2.56761 -0.00813519 0)
(2.5315 -0.00889619 0)
(2.49955 -0.00912717 0)
(2.47104 -0.00895896 0)
(2.44535 -0.00851274 0)
(2.42193 -0.00788241 0)
(2.40034 -0.00713706 0)
(2.38018 -0.00632792 0)
(2.36114 -0.00549338 0)
(2.34296 -0.00466198 0)
(2.32543 -0.00385439 0)
(2.30839 -0.00308502 0)
(2.29174 -0.00236349 0)
(2.27536 -0.00169579 0)
(2.25921 -0.00108508 0)
(2.24323 -0.000532302 0)
(2.22738 -3.66688e-05 0)
(2.21166 0.000403984 0)
(2.19604 0.00079281 0)
(2.18053 0.00113363 0)
(2.16511 0.00143064 0)
(2.1498 0.0016882 0)
(2.13458 0.00191068 0)
(2.11947 0.00210229 0)
(2.10447 0.00226703 0)
(2.08958 0.00240866 0)
(2.07479 0.00253062 0)
(2.06011 0.00263605 0)
(2.04554 0.00272778 0)
(2.03108 0.00280835 0)
(2.01671 0.00288002 0)
(2.00243 0.00294478 0)
(1.98824 0.00300436 0)
(1.97412 0.00306032 0)
(1.96007 0.00311399 0)
(1.94607 0.0031665 0)
(1.93212 0.00321884 0)
(1.91819 0.00327177 0)
(1.90429 0.00332599 0)
(1.89038 0.00338218 0)
(1.87645 0.00344098 0)
(1.8625 0.00350301 0)
(1.84849 0.00356882 0)
(1.83442 0.00363888 0)
(1.82026 0.0037136 0)
(1.80599 0.00379337 0)
(1.7916 0.00387852 0)
(1.77707 0.00396935 0)
(1.76236 0.00406614 0)
(1.74747 0.00416915 0)
(1.73236 0.0042786 0)
(1.71701 0.0043947 0)
(1.7014 0.00451762 0)
(1.6855 0.00464755 0)
(1.66929 0.00478461 0)
(1.65273 0.00492891 0)
(1.63581 0.00508051 0)
(1.61849 0.00523947 0)
(1.60074 0.00540576 0)
(1.58253 0.00557932 0)
(1.56383 0.00576001 0)
(1.54461 0.00594765 0)
(1.52484 0.00614194 0)
(1.50448 0.00634251 0)
(1.4835 0.00654884 0)
(1.46186 0.00676032 0)
(1.43953 0.00697613 0)
(1.41648 0.00719527 0)
(1.39267 0.00741652 0)
(1.36807 0.0076384 0)
(1.34263 0.00785922 0)
(1.31634 0.00807757 0)
(1.28916 0.00829212 0)
(1.26105 0.00850116 0)
(1.23199 0.00870259 0)
(1.20196 0.00889419 0)
(1.17092 0.00907388 0)
(1.13887 0.0092379 0)
(1.10579 0.00938341 0)
(1.07166 0.00950644 0)
(1.0365 0.0096026 0)
(1.0003 0.00966734 0)
(0.963075 0.00969593 0)
(0.924854 0.00968358 0)
(0.885669 0.00962553 0)
(0.845566 0.00951732 0)
(0.804605 0.00935496 0)
(0.762857 0.00913527 0)
(0.72041 0.00885622 0)
(0.677366 0.00851733 0)
(0.633842 0.00812016 0)
(0.589971 0.00766877 0)
(0.545898 0.00717021 0)
(0.501784 0.00663492 0)
(0.457798 0.00607692 0)
(0.41412 0.00551368 0)
(0.370936 0.00496537 0)
(0.328434 0.00445338 0)
(0.286802 0.00399776 0)
(0.246227 0.00361371 0)
(0.206894 0.00330784 0)
(0.168982 0.00307432 0)
(0.132672 0.00289222 0)
(0.0981455 0.00272519 0)
(0.0655855 0.00252544 0)
(0.0351685 0.00224263 0)
(0.00702656 0.00184137 0)
(-0.0186789 0.00134221 0)
(-0.0418987 0.000724609 0)
(-0.0627409 7.48759e-05 0)
(-0.0813107 -0.000519622 0)
(-0.0977636 -0.000985054 0)
(-0.112235 -0.0012925 0)
(-0.124787 -0.00148713 0)
(-0.135369 -0.00169125 0)
(-0.143938 -0.00191955 0)
(-0.150563 -0.00210157 0)
(-0.155523 -0.00213036 0)
(-0.159178 -0.00203315 0)
(-0.161761 -0.00192863 0)
(-0.163323 -0.00189548 0)
(-0.163892 -0.00189365 0)
(-0.163668 -0.00181854 0)
(-0.162928 -0.00166553 0)
(-0.161788 -0.0015307 0)
(-0.160135 -0.00150332 0)
(10.0008 0.122279 0)
(10.0676 0.272137 0)
(10.1383 0.342321 0)
(10.1915 0.367552 0)
(10.2161 0.377243 0)
(10.2123 0.385768 0)
(10.1866 0.395782 0)
(10.1458 0.405219 0)
(10.094 0.411968 0)
(10.033 0.415276 0)
(9.96332 0.415459 0)
(9.88493 0.413207 0)
(9.79809 0.409068 0)
(9.70347 0.403323 0)
(9.60188 0.396015 0)
(9.49435 0.387099 0)
(9.38179 0.376509 0)
(9.26524 0.364233 0)
(9.14545 0.350291 0)
(9.02325 0.33478 0)
(8.89948 0.317885 0)
(8.77498 0.299855 0)
(8.6505 0.280987 0)
(8.52677 0.261601 0)
(8.40444 0.242025 0)
(8.28408 0.222579 0)
(8.16619 0.203565 0)
(8.05122 0.18525 0)
(7.93947 0.167857 0)
(7.83125 0.151562 0)
(7.72672 0.136485 0)
(7.62601 0.122699 0)
(7.52915 0.110228 0)
(7.43616 0.0990586 0)
(7.34693 0.0891419 0)
(7.26141 0.0804116 0)
(7.17937 0.0727776 0)
(7.10067 0.0661607 0)
(7.02516 0.0604811 0)
(6.95267 0.0556501 0)
(6.88303 0.0515703 0)
(6.81606 0.0481415 0)
(6.75158 0.0452667 0)
(6.68941 0.0428566 0)
(6.6294 0.0408323 0)
(6.57139 0.0391259 0)
(6.51525 0.03768 0)
(6.46083 0.0364464 0)
(6.40802 0.0353848 0)
(6.35672 0.0344623 0)
(6.30681 0.0336516 0)
(6.25821 0.0329308 0)
(6.21083 0.0322824 0)
(6.1646 0.0316927 0)
(6.11945 0.0311508 0)
(6.07531 0.0306488 0)
(6.03212 0.0301804 0)
(5.98983 0.0297414 0)
(5.94838 0.0293286 0)
(5.90773 0.0289399 0)
(5.86782 0.0285742 0)
(5.82861 0.0282309 0)
(5.79007 0.0279098 0)
(5.75214 0.0276112 0)
(5.71479 0.0273356 0)
(5.67798 0.0270837 0)
(5.64167 0.0268564 0)
(5.60582 0.0266545 0)
(5.57039 0.026479 0)
(5.53535 0.026331 0)
(5.50066 0.0262115 0)
(5.46628 0.0261214 0)
(5.43217 0.0260617 0)
(5.3983 0.0260332 0)
(5.36463 0.0260371 0)
(5.33111 0.0260742 0)
(5.29772 0.0261458 0)
(5.2644 0.0262527 0)
(5.23113 0.0263963 0)
(5.19785 0.0265775 0)
(5.16452 0.0267976 0)
(5.13111 0.0270578 0)
(5.09756 0.0273594 0)
(5.06383 0.0277038 0)
(5.02988 0.0280923 0)
(4.99565 0.0285265 0)
(4.96108 0.0290077 0)
(4.92614 0.0295377 0)
(4.89077 0.0301181 0)
(4.8549 0.0307505 0)
(4.81849 0.0314367 0)
(4.78146 0.0321786 0)
(4.74376 0.0329778 0)
(4.70533 0.0338364 0)
(4.66608 0.0347561 0)
(4.62596 0.0357389 0)
(4.58489 0.0367865 0)
(4.54279 0.0379007 0)
(4.49959 0.0390833 0)
(4.45519 0.0403358 0)
(4.40952 0.0416598 0)
(4.36248 0.0430565 0)
(4.31399 0.0445269 0)
(4.26393 0.0460716 0)
(4.21223 0.047691 0)
(4.15877 0.0493844 0)
(4.10346 0.0511501 0)
(4.04617 0.0529858 0)
(3.9868 0.0548882 0)
(3.92525 0.0568531 0)
(3.86138 0.0588765 0)
(3.79509 0.0609508 0)
(3.72626 0.0630696 0)
(3.65477 0.0652235 0)
(3.58051 0.0674021 0)
(3.50335 0.0695926 0)
(3.4232 0.0717803 0)
(3.33995 0.0739481 0)
(3.2535 0.0760764 0)
(3.16377 0.0781429 0)
(3.07068 0.0801224 0)
(2.97419 0.0819872 0)
(2.87424 0.0837065 0)
(2.77085 0.0852471 0)
(2.66402 0.0865733 0)
(2.55382 0.0876476 0)
(2.44033 0.0884312 0)
(2.32371 0.0888846 0)
(2.20417 0.0889692 0)
(2.08196 0.088648 0)
(1.95744 0.0878872 0)
(1.83101 0.0866583 0)
(1.70318 0.0849407 0)
(1.57454 0.0827236 0)
(1.44575 0.0800091 0)
(1.31756 0.0768113 0)
(1.19076 0.0731584 0)
(1.0662 0.0690959 0)
(0.944708 0.0646927 0)
(0.827104 0.060044 0)
(0.71413 0.0552702 0)
(0.606442 0.0505563 0)
(0.5046 0.0459996 0)
(0.409029 0.0417261 0)
(0.320074 0.0377594 0)
(0.238002 0.033997 0)
(0.162942 0.0302415 0)
(0.0949127 0.0263381 0)
(0.0341257 0.0223104 0)
(-0.0195075 0.0182541 0)
(-0.0662774 0.0144753 0)
(-0.106868 0.0112323 0)
(-0.141902 0.00862169 0)
(-0.171684 0.00635267 0)
(-0.196433 0.00416157 0)
(-0.21649 0.00218477 0)
(-0.232515 0.000738205 0)
(-0.245153 -0.00029523 0)
(-0.254764 -0.00133615 0)
(-0.261428 -0.00265586 0)
(10.0003 0.061412 0)
(10.0359 0.160323 0)
(10.0898 0.227822 0)
(10.1516 0.26845 0)
(10.2101 0.293285 0)
(10.2592 0.31215 0)
(10.298 0.330012 0)
(10.3292 0.347478 0)
(10.3556 0.363365 0)
(10.3789 0.37657 0)
(10.3993 0.386698 0)
(10.4165 0.393927 0)
(10.4298 0.398641 0)
(10.4388 0.401148 0)
(10.4434 0.401591 0)
(10.4434 0.399979 0)
(10.4391 0.396272 0)
(10.4304 0.390448 0)
(10.4173 0.382567 0)
(10.4001 0.37276 0)
(10.3788 0.361211 0)
(10.3536 0.348154 0)
(10.3248 0.333858 0)
(10.2925 0.318621 0)
(10.2571 0.302754 0)
(10.219 0.286573 0)
(10.1783 0.270376 0)
(10.1356 0.254444 0)
(10.0912 0.239014 0)
(10.0453 0.224284 0)
(9.99845 0.210399 0)
(9.95081 0.197462 0)
(9.90267 0.185524 0)
(9.85429 0.174601 0)
(9.80583 0.164673 0)
(9.75748 0.155701 0)
(9.70933 0.147626 0)
(9.6615 0.140393 0)
(9.61408 0.133948 0)
(9.56711 0.128225 0)
(9.5206 0.123151 0)
(9.47455 0.118646 0)
(9.42897 0.114633 0)
(9.38386 0.111039 0)
(9.33921 0.107802 0)
(9.295 0.104865 0)
(9.25123 0.102182 0)
(9.20788 0.099715 0)
(9.16493 0.0974311 0)
(9.12237 0.0953034 0)
(9.08019 0.0933101 0)
(9.03837 0.091433 0)
(8.99689 0.0896579 0)
(8.95575 0.0879732 0)
(8.91493 0.08637 0)
(8.87442 0.0848414 0)
(8.83421 0.0833823 0)
(8.79428 0.081989 0)
(8.75464 0.0806588 0)
(8.71526 0.0793899 0)
(8.67615 0.0781815 0)
(8.63727 0.077033 0)
(8.59863 0.0759444 0)
(8.56022 0.0749162 0)
(8.52201 0.0739489 0)
(8.484 0.0730435 0)
(8.44618 0.0722009 0)
(8.40851 0.0714223 0)
(8.371 0.070709 0)
(8.33363 0.0700623 0)
(8.29636 0.0694839 0)
(8.25919 0.0689754 0)
(8.2221 0.0685384 0)
(8.18505 0.068175 0)
(8.14803 0.0678868 0)
(8.11102 0.0676758 0)
(8.07398 0.0675441 0)
(8.03689 0.0674937 0)
(7.99971 0.0675267 0)
(7.96242 0.0676457 0)
(7.92498 0.0678529 0)
(7.88736 0.0681511 0)
(7.84952 0.068543 0)
(7.81142 0.0690317 0)
(7.77302 0.0696203 0)
(7.73428 0.0703121 0)
(7.69514 0.0711109 0)
(7.65556 0.0720204 0)
(7.61549 0.0730447 0)
(7.57488 0.074188 0)
(7.53366 0.0754548 0)
(7.49178 0.07685 0)
(7.44917 0.0783785 0)
(7.40576 0.0800456 0)
(7.36149 0.0818567 0)
(7.31628 0.0838174 0)
(7.27005 0.0859338 0)
(7.22272 0.0882118 0)
(7.17419 0.0906577 0)
(7.12438 0.0932779 0)
(7.0732 0.096079 0)
(7.02052 0.0990675 0)
(6.96626 0.10225 0)
(6.91028 0.105633 0)
(6.85248 0.109223 0)
(6.79272 0.113025 0)
(6.73088 0.117044 0)
(6.6668 0.121285 0)
(6.60035 0.125751 0)
(6.53137 0.130444 0)
(6.45969 0.135367 0)
(6.38515 0.140517 0)
(6.30757 0.145893 0)
(6.22677 0.15149 0)
(6.14254 0.157302 0)
(6.0547 0.16332 0)
(5.96303 0.169531 0)
(5.86733 0.175919 0)
(5.76736 0.182463 0)
(5.66292 0.189138 0)
(5.55376 0.195913 0)
(5.43967 0.202749 0)
(5.32041 0.209602 0)
(5.19577 0.21642 0)
(5.06551 0.223141 0)
(4.92944 0.229693 0)
(4.78736 0.235997 0)
(4.63911 0.241958 0)
(4.48453 0.247472 0)
(4.32354 0.252422 0)
(4.15607 0.256677 0)
(3.98213 0.260095 0)
(3.8018 0.262521 0)
(3.61526 0.263792 0)
(3.42277 0.263746 0)
(3.22474 0.262223 0)
(3.02171 0.259079 0)
(2.81439 0.254192 0)
(2.60372 0.247481 0)
(2.39081 0.238919 0)
(2.17707 0.228548 0)
(1.96411 0.216499 0)
(1.75382 0.20298 0)
(1.54829 0.188283 0)
(1.34972 0.172758 0)
(1.16028 0.156789 0)
(0.981896 0.140769 0)
(0.816087 0.1251 0)
(0.663787 0.11036 0)
(0.524922 0.096978 0)
(0.399186 0.0851126 0)
(0.286263 0.0743809 0)
(0.185821 0.0641599 0)
(0.0978056 0.0541053 0)
(0.0216852 0.0442251 0)
(-0.0434217 0.0350925 0)
(-0.0989855 0.0273133 0)
(-0.146056 0.0208979 0)
(-0.185232 0.0150416 0)
(-0.217105 0.00922374 0)
(10.0002 0.0417809 0)
(10.0198 0.117275 0)
(10.0537 0.178916 0)
(10.0983 0.224502 0)
(10.1468 0.256569 0)
(10.1935 0.280048 0)
(10.2355 0.299309 0)
(10.2732 0.316684 0)
(10.3082 0.332558 0)
(10.3422 0.346426 0)
(10.376 0.3578 0)
(10.4096 0.366541 0)
(10.4428 0.372808 0)
(10.4748 0.376853 0)
(10.5055 0.378875 0)
(10.5345 0.37897 0)
(10.5616 0.377177 0)
(10.5867 0.373525 0)
(10.6096 0.368078 0)
(10.6301 0.360944 0)
(10.6482 0.35227 0)
(10.6636 0.342237 0)
(10.6764 0.331058 0)
(10.6863 0.318967 0)
(10.6935 0.306214 0)
(10.698 0.293052 0)
(10.6999 0.279729 0)
(10.6993 0.266474 0)
(10.6964 0.253494 0)
(10.6915 0.240962 0)
(10.6846 0.229019 0)
(10.6761 0.217767 0)
(10.6662 0.207278 0)
(10.655 0.197588 0)
(10.6427 0.188713 0)
(10.6296 0.180641 0)
(10.6156 0.173349 0)
(10.6011 0.166789 0)
(10.5861 0.160901 0)
(10.5706 0.155624 0)
(10.5546 0.150896 0)
(10.5384 0.146658 0)
(10.5217 0.142854 0)
(10.5048 0.139432 0)
(10.4876 0.136342 0)
(10.4702 0.133542 0)
(10.4525 0.130992 0)
(10.4346 0.128659 0)
(10.4164 0.126513 0)
(10.3979 0.124529 0)
(10.3793 0.122684 0)
(10.3604 0.12096 0)
(10.3412 0.119342 0)
(10.3218 0.117817 0)
(10.3022 0.116376 0)
(10.2823 0.115009 0)
(10.2622 0.113711 0)
(10.2418 0.112478 0)
(10.2212 0.111305 0)
(10.2003 0.110191 0)
(10.1793 0.109134 0)
(10.1579 0.108134 0)
(10.1364 0.107192 0)
(10.1145 0.106307 0)
(10.0925 0.105481 0)
(10.0702 0.104716 0)
(10.0476 0.104013 0)
(10.0249 0.103375 0)
(10.0018 0.102804 0)
(9.97851 0.102302 0)
(9.95495 0.101873 0)
(9.93113 0.101519 0)
(9.90703 0.101244 0)
(9.88265 0.101051 0)
(9.85797 0.100944 0)
(9.83299 0.100926 0)
(9.8077 0.101002 0)
(9.78207 0.101176 0)
(9.75609 0.101451 0)
(9.72975 0.101832 0)
(9.70302 0.102323 0)
(9.67589 0.102931 0)
(9.64833 0.103659 0)
(9.62032 0.104512 0)
(9.59182 0.105498 0)
(9.56282 0.10662 0)
(9.53327 0.107887 0)
(9.50314 0.109304 0)
(9.47241 0.110879 0)
(9.44101 0.112618 0)
(9.40893 0.114529 0)
(9.3761 0.116621 0)
(9.34248 0.118902 0)
(9.30801 0.121382 0)
(9.27265 0.124068 0)
(9.23632 0.126971 0)
(9.19897 0.130102 0)
(9.16053 0.133471 0)
(9.12091 0.137089 0)
(9.08006 0.140967 0)
(9.03787 0.145117 0)
(8.99426 0.149551 0)
(8.94913 0.154283 0)
(8.90239 0.159323 0)
(8.85392 0.164686 0)
(8.80361 0.170383 0)
(8.75134 0.176429 0)
(8.69696 0.182835 0)
(8.64034 0.189614 0)
(8.58134 0.196779 0)
(8.51979 0.20434 0)
(8.45551 0.212308 0)
(8.38834 0.22069 0)
(8.31808 0.229494 0)
(8.24452 0.238726 0)
(8.16746 0.248387 0)
(8.08665 0.258478 0)
(8.00186 0.268996 0)
(7.91282 0.279932 0)
(7.81927 0.291274 0)
(7.72092 0.303004 0)
(7.61747 0.315097 0)
(7.50859 0.327521 0)
(7.39397 0.340233 0)
(7.27324 0.353183 0)
(7.14606 0.366308 0)
(7.01205 0.379532 0)
(6.87083 0.392767 0)
(6.72201 0.405906 0)
(6.56521 0.418826 0)
(6.40002 0.431385 0)
(6.22608 0.443421 0)
(6.04301 0.454747 0)
(5.85049 0.465156 0)
(5.64821 0.474409 0)
(5.43592 0.482243 0)
(5.21344 0.488376 0)
(4.98069 0.492504 0)
(4.7377 0.494312 0)
(4.48465 0.493471 0)
(4.22192 0.489649 0)
(3.95013 0.482524 0)
(3.67018 0.471794 0)
(3.38333 0.457218 0)
(3.09123 0.438648 0)
(2.79604 0.416081 0)
(2.50047 0.389714 0)
(2.20778 0.359999 0)
(1.92182 0.327657 0)
(1.64673 0.293757 0)
(1.38686 0.259576 0)
(1.14627 0.226461 0)
(0.928047 0.195432 0)
(0.73396 0.167507 0)
(0.563113 0.143388 0)
(0.413297 0.122964 0)
(0.282249 0.104975 0)
(0.168884 0.0881142 0)
(0.0722971 0.071722 0)
(-0.00923155 0.0558441 0)
(10.0001 0.0316623 0)
(10.0128 0.0917407 0)
(10.036 0.145037 0)
(10.0682 0.188698 0)
(10.1059 0.222281 0)
(10.1451 0.247718 0)
(10.1829 0.267813 0)
(10.2183 0.284867 0)
(10.2518 0.29998 0)
(10.2843 0.313282 0)
(10.3168 0.324517 0)
(10.3498 0.333473 0)
(10.383 0.340133 0)
(10.4162 0.344635 0)
(10.449 0.347156 0)
(10.4811 0.347846 0)
(10.5124 0.346808 0)
(10.5427 0.34412 0)
(10.5719 0.339861 0)
(10.5998 0.334129 0)
(10.6264 0.327053 0)
(10.6514 0.318788 0)
(10.6747 0.309512 0)
(10.6961 0.29942 0)
(10.7158 0.28872 0)
(10.7335 0.277622 0)
(10.7493 0.266334 0)
(10.7632 0.255048 0)
(10.7754 0.243941 0)
(10.7859 0.233163 0)
(10.7948 0.222839 0)
(10.8024 0.213066 0)
(10.8087 0.203914 0)
(10.8139 0.195426 0)
(10.8182 0.187622 0)
(10.8216 0.180504 0)
(10.8243 0.174052 0)
(10.8263 0.168233 0)
(10.8279 0.163 0)
(10.8289 0.158304 0)
(10.8295 0.154098 0)
(10.8297 0.150336 0)
(10.8296 0.146975 0)
(10.8292 0.143972 0)
(10.8284 0.141289 0)
(10.8273 0.138885 0)
(10.826 0.136727 0)
(10.8244 0.134784 0)
(10.8225 0.133025 0)
(10.8204 0.131428 0)
(10.8179 0.129971 0)
(10.8152 0.128635 0)
(10.8122 0.127405 0)
(10.8089 0.126269 0)
(10.8053 0.125216 0)
(10.8014 0.124238 0)
(10.7972 0.123328 0)
(10.7927 0.122481 0)
(10.7879 0.121695 0)
(10.7827 0.120966 0)
(10.7773 0.120294 0)
(10.7715 0.119678 0)
(10.7654 0.119119 0)
(10.7589 0.118617 0)
(10.7522 0.118173 0)
(10.745 0.117791 0)
(10.7376 0.117471 0)
(10.7298 0.117218 0)
(10.7217 0.117032 0)
(10.7132 0.116919 0)
(10.7044 0.116882 0)
(10.6952 0.116924 0)
(10.6856 0.117049 0)
(10.6757 0.117262 0)
(10.6654 0.117567 0)
(10.6547 0.117969 0)
(10.6436 0.118473 0)
(10.6322 0.119085 0)
(10.6203 0.119809 0)
(10.6079 0.120652 0)
(10.5952 0.121619 0)
(10.582 0.122718 0)
(10.5683 0.123954 0)
(10.5541 0.125336 0)
(10.5394 0.126871 0)
(10.5242 0.128566 0)
(10.5084 0.13043 0)
(10.4921 0.132472 0)
(10.4752 0.134701 0)
(10.4576 0.137127 0)
(10.4394 0.139761 0)
(10.4205 0.142613 0)
(10.4009 0.145695 0)
(10.3805 0.149019 0)
(10.3593 0.152598 0)
(10.3373 0.156445 0)
(10.3143 0.160574 0)
(10.2905 0.165 0)
(10.2656 0.169738 0)
(10.2396 0.174804 0)
(10.2125 0.180215 0)
(10.1842 0.185987 0)
(10.1547 0.19214 0)
(10.1238 0.198691 0)
(10.0915 0.205659 0)
(10.0576 0.213064 0)
(10.0222 0.220927 0)
(9.98496 0.229267 0)
(9.94591 0.238106 0)
(9.90491 0.247465 0)
(9.86181 0.257362 0)
(9.81647 0.267822 0)
(9.76874 0.278862 0)
(9.71846 0.290501 0)
(9.66545 0.302759 0)
(9.60953 0.315652 0)
(9.55048 0.329194 0)
(9.4881 0.343397 0)
(9.42215 0.358271 0)
(9.35236 0.373821 0)
(9.27848 0.390046 0)
(9.20021 0.406943 0)
(9.11723 0.424499 0)
(9.0292 0.442695 0)
(8.93578 0.461502 0)
(8.83656 0.480882 0)
(8.73114 0.500784 0)
(8.61908 0.521142 0)
(8.49991 0.541874 0)
(8.37312 0.562883 0)
(8.23821 0.584049 0)
(8.0946 0.60523 0)
(7.94173 0.626259 0)
(7.77899 0.646941 0)
(7.60574 0.667045 0)
(7.42136 0.686307 0)
(7.22518 0.704429 0)
(7.01657 0.721076 0)
(6.7949 0.735878 0)
(6.55959 0.748432 0)
(6.31011 0.758299 0)
(6.04603 0.765007 0)
(5.76706 0.768058 0)
(5.47309 0.766917 0)
(5.16424 0.761031 0)
(4.84091 0.749857 0)
(4.50393 0.732869 0)
(4.15456 0.709604 0)
(3.79465 0.679686 0)
(3.42676 0.642954 0)
(3.05427 0.599525 0)
(2.68165 0.549941 0)
(2.31457 0.495281 0)
(1.95998 0.43731 0)
(1.62538 0.378543 0)
(1.31816 0.322062 0)
(1.04417 0.270611 0)
(0.806892 0.22605 0)
(0.605238 0.189265 0)
(0.433947 0.159008 0)
(10.0001 0.0253322 0)
(10.0092 0.0742925 0)
(10.0261 0.119439 0)
(10.0502 0.158588 0)
(10.0797 0.190695 0)
(10.1121 0.216191 0)
(10.1451 0.23653 0)
(10.1773 0.253353 0)
(10.2083 0.267845 0)
(10.2386 0.280501 0)
(10.2688 0.29133 0)
(10.2993 0.300185 0)
(10.3301 0.30698 0)
(10.3611 0.311754 0)
(10.3921 0.314635 0)
(10.4226 0.315778 0)
(10.4527 0.315316 0)
(10.482 0.313359 0)
(10.5106 0.309999 0)
(10.5383 0.305335 0)
(10.5649 0.299479 0)
(10.5905 0.292564 0)
(10.6148 0.284743 0)
(10.6378 0.276183 0)
(10.6594 0.267058 0)
(10.6795 0.25755 0)
(10.6982 0.247834 0)
(10.7155 0.238075 0)
(10.7314 0.228427 0)
(10.746 0.219021 0)
(10.7594 0.209969 0)
(10.7717 0.201361 0)
(10.7829 0.193262 0)
(10.7933 0.185715 0)
(10.803 0.178746 0)
(10.8119 0.172359 0)
(10.8203 0.166543 0)
(10.8282 0.161275 0)
(10.8356 0.156523 0)
(10.8427 0.152251 0)
(10.8495 0.148423 0)
(10.856 0.145003 0)
(10.8622 0.141954 0)
(10.8682 0.139241 0)
(10.8741 0.136832 0)
(10.8797 0.134691 0)
(10.8852 0.132788 0)
(10.8905 0.131094 0)
(10.8956 0.129584 0)
(10.9006 0.128234 0)
(10.9054 0.127025 0)
(10.91 0.125939 0)
(10.9144 0.124963 0)
(10.9187 0.124084 0)
(10.9227 0.123292 0)
(10.9266 0.122579 0)
(10.9302 0.12194 0)
(10.9337 0.121369 0)
(10.9369 0.120862 0)
(10.9399 0.120419 0)
(10.9427 0.120036 0)
(10.9452 0.119714 0)
(10.9475 0.119453 0)
(10.9496 0.119255 0)
(10.9514 0.11912 0)
(10.953 0.119051 0)
(10.9543 0.11905 0)
(10.9553 0.11912 0)
(10.9561 0.119264 0)
(10.9566 0.119487 0)
(10.9568 0.119791 0)
(10.9568 0.12018 0)
(10.9564 0.12066 0)
(10.9558 0.121235 0)
(10.9548 0.12191 0)
(10.9536 0.12269 0)
(10.952 0.123581 0)
(10.9501 0.124589 0)
(10.9479 0.12572 0)
(10.9453 0.12698 0)
(10.9424 0.128378 0)
(10.9391 0.129919 0)
(10.9355 0.131613 0)
(10.9314 0.133467 0)
(10.927 0.135491 0)
(10.9221 0.137692 0)
(10.9168 0.140083 0)
(10.9111 0.142671 0)
(10.9049 0.14547 0)
(10.8982 0.14849 0)
(10.891 0.151743 0)
(10.8833 0.155243 0)
(10.875 0.159003 0)
(10.8661 0.163038 0)
(10.8566 0.167362 0)
(10.8465 0.171993 0)
(10.8357 0.176946 0)
(10.8242 0.18224 0)
(10.8119 0.187893 0)
(10.7989 0.193924 0)
(10.785 0.200355 0)
(10.7703 0.207206 0)
(10.7546 0.2145 0)
(10.7379 0.222261 0)
(10.7202 0.230512 0)
(10.7014 0.239279 0)
(10.6814 0.248589 0)
(10.6601 0.258467 0)
(10.6375 0.268943 0)
(10.6135 0.280045 0)
(10.5879 0.291801 0)
(10.5608 0.304242 0)
(10.5319 0.317398 0)
(10.5011 0.331297 0)
(10.4684 0.345971 0)
(10.4335 0.361448 0)
(10.3964 0.377757 0)
(10.3568 0.394924 0)
(10.3146 0.412973 0)
(10.2695 0.431929 0)
(10.2214 0.451809 0)
(10.17 0.472629 0)
(10.1151 0.4944 0)
(10.0564 0.517124 0)
(9.9935 0.5408 0)
(9.92617 0.565414 0)
(9.85401 0.590945 0)
(9.77663 0.617358 0)
(9.69359 0.644603 0)
(9.60442 0.672616 0)
(9.50861 0.701312 0)
(9.40559 0.730584 0)
(9.29477 0.760302 0)
(9.17549 0.790307 0)
(9.04703 0.820415 0)
(8.90865 0.850406 0)
(8.75953 0.880027 0)
(8.59881 0.908986 0)
(8.42558 0.93695 0)
(8.2389 0.963542 0)
(8.03779 0.988342 0)
(7.82125 1.01088 0)
(7.58827 1.03062 0)
(7.33788 1.04699 0)
(7.06913 1.05931 0)
(6.78119 1.06688 0)
(6.47336 1.06893 0)
(6.14516 1.06466 0)
(5.7964 1.05327 0)
(5.4273 1.03396 0)
(5.03857 1.00597 0)
(4.63167 0.96867 0)
(4.20889 0.921537 0)
(3.77368 0.864297 0)
(3.33065 0.797092 0)
(2.88603 0.720795 0)
(2.44792 0.637247 0)
(2.02683 0.549559 0)
(1.63488 0.462213 0)
(1.28356 0.380846 0)
(10.0001 0.0208365 0)
(10.007 0.0615053 0)
(10.02 0.0997282 0)
(10.0387 0.134103 0)
(10.0623 0.163616 0)
(10.0892 0.188085 0)
(10.1177 0.208098 0)
(10.1466 0.22464 0)
(10.1751 0.238659 0)
(10.2033 0.250748 0)
(10.2314 0.261108 0)
(10.2596 0.269713 0)
(10.2882 0.276489 0)
(10.317 0.281429 0)
(10.3459 0.28461 0)
(10.3745 0.286158 0)
(10.4028 0.28621 0)
(10.4305 0.284885 0)
(10.4576 0.282288 0)
(10.4839 0.278518 0)
(10.5094 0.273677 0)
(10.5339 0.267883 0)
(10.5574 0.261266 0)
(10.5798 0.25397 0)
(10.6011 0.246145 0)
(10.6212 0.237945 0)
(10.64 0.229523 0)
(10.6576 0.22102 0)
(10.6741 0.21257 0)
(10.6895 0.204288 0)
(10.7038 0.196276 0)
(10.7172 0.188614 0)
(10.7298 0.181364 0)
(10.7415 0.17457 0)
(10.7526 0.168258 0)
(10.7631 0.162438 0)
(10.7731 0.157108 0)
(10.7827 0.152253 0)
(10.7919 0.147853 0)
(10.8007 0.143884 0)
(10.8093 0.140316 0)
(10.8177 0.137121 0)
(10.8259 0.134269 0)
(10.8339 0.131731 0)
(10.8418 0.129477 0)
(10.8495 0.12748 0)
(10.8571 0.12571 0)
(10.8646 0.124143 0)
(10.8721 0.122757 0)
(10.8793 0.12153 0)
(10.8865 0.120444 0)
(10.8936 0.119484 0)
(10.9006 0.118637 0)
(10.9075 0.117892 0)
(10.9142 0.117239 0)
(10.9209 0.11667 0)
(10.9274 0.116181 0)
(10.9338 0.115765 0)
(10.94 0.11542 0)
(10.9461 0.115144 0)
(10.9521 0.114935 0)
(10.9579 0.114792 0)
(10.9636 0.114717 0)
(10.9691 0.114709 0)
(10.9745 0.114771 0)
(10.9796 0.114904 0)
(10.9847 0.115111 0)
(10.9895 0.115395 0)
(10.9942 0.115759 0)
(10.9987 0.116207 0)
(11.0029 0.116742 0)
(11.007 0.11737 0)
(11.0109 0.118094 0)
(11.0146 0.11892 0)
(11.0181 0.119852 0)
(11.0214 0.120897 0)
(11.0245 0.12206 0)
(11.0273 0.123348 0)
(11.0299 0.124768 0)
(11.0323 0.126326 0)
(11.0344 0.12803 0)
(11.0363 0.129889 0)
(11.0379 0.131911 0)
(11.0392 0.134105 0)
(11.0403 0.136481 0)
(11.041 0.139048 0)
(11.0415 0.141817 0)
(11.0416 0.144801 0)
(11.0414 0.14801 0)
(11.0409 0.151458 0)
(11.04 0.155157 0)
(11.0388 0.159123 0)
(11.0371 0.163371 0)
(11.0351 0.167915 0)
(11.0326 0.172774 0)
(11.0297 0.177965 0)
(11.0264 0.183507 0)
(11.0225 0.189419 0)
(11.0182 0.195722 0)
(11.0133 0.202439 0)
(11.0078 0.209592 0)
(11.0018 0.217206 0)
(10.9951 0.225306 0)
(10.9877 0.233919 0)
(10.9797 0.243072 0)
(10.9709 0.252795 0)
(10.9613 0.263119 0)
(10.9509 0.274075 0)
(10.9396 0.285696 0)
(10.9273 0.298017 0)
(10.9141 0.311071 0)
(10.8998 0.324898 0)
(10.8843 0.339532 0)
(10.8676 0.355013 0)
(10.8496 0.371378 0)
(10.8303 0.388668 0)
(10.8094 0.40692 0)
(10.7869 0.426174 0)
(10.7627 0.446467 0)
(10.7366 0.467838 0)
(10.7084 0.490321 0)
(10.6781 0.513949 0)
(10.6455 0.538752 0)
(10.6102 0.564756 0)
(10.5722 0.591982 0)
(10.5311 0.620445 0)
(10.4867 0.65015 0)
(10.4387 0.681096 0)
(10.3868 0.713269 0)
(10.3305 0.746641 0)
(10.2695 0.78117 0)
(10.2032 0.816795 0)
(10.1313 0.853436 0)
(10.053 0.89099 0)
(9.96786 0.929327 0)
(9.87508 0.96829 0)
(9.77393 1.00769 0)
(9.66356 1.0473 0)
(9.54306 1.08684 0)
(9.41143 1.12601 0)
(9.26759 1.16444 0)
(9.11037 1.20171 0)
(8.93854 1.23734 0)
(8.75077 1.27077 0)
(8.54567 1.3014 0)
(8.32182 1.32853 0)
(8.07778 1.35141 0)
(7.81209 1.3692 0)
(7.52337 1.38098 0)
(7.21032 1.38579 0)
(6.87182 1.38254 0)
(6.50708 1.37014 0)
(6.11569 1.34742 0)
(5.69786 1.31325 0)
(5.25452 1.26656 0)
(4.78762 1.20651 0)
(4.30051 1.1326 0)
(3.79825 1.04483 0)
(3.28799 0.943821 0)
(2.77943 0.831549 0)
(10.0001 0.0174414 0)
(10.0056 0.051676 0)
(10.016 0.0842451 0)
(10.0311 0.114218 0)
(10.0503 0.140789 0)
(10.0729 0.163584 0)
(10.0976 0.182738 0)
(10.1233 0.198758 0)
(10.1494 0.212281 0)
(10.1755 0.223828 0)
(10.2017 0.233685 0)
(10.2281 0.24193 0)
(10.2547 0.248546 0)
(10.2816 0.253519 0)
(10.3085 0.256893 0)
(10.3354 0.258759 0)
(10.3621 0.259236 0)
(10.3883 0.258441 0)
(10.4139 0.256481 0)
(10.4389 0.253456 0)
(10.4632 0.249463 0)
(10.4867 0.244608 0)
(10.5093 0.239003 0)
(10.531 0.232774 0)
(10.5516 0.226051 0)
(10.5712 0.218965 0)
(10.5897 0.211649 0)
(10.6072 0.204225 0)
(10.6237 0.19681 0)
(10.6391 0.189506 0)
(10.6537 0.182402 0)
(10.6674 0.175572 0)
(10.6803 0.169073 0)
(10.6925 0.162947 0)
(10.704 0.157222 0)
(10.715 0.151913 0)
(10.7256 0.147023 0)
(10.7357 0.142546 0)
(10.7454 0.138469 0)
(10.7548 0.134775 0)
(10.764 0.131443 0)
(10.7729 0.12845 0)
(10.7817 0.125771 0)
(10.7903 0.123381 0)
(10.7987 0.121256 0)
(10.807 0.119371 0)
(10.8152 0.117702 0)
(10.8233 0.116228 0)
(10.8313 0.114929 0)
(10.8392 0.113786 0)
(10.8471 0.112783 0)
(10.8548 0.111906 0)
(10.8625 0.111144 0)
(10.8701 0.110486 0)
(10.8776 0.109923 0)
(10.885 0.109448 0)
(10.8923 0.109056 0)
(10.8995 0.108743 0)
(10.9066 0.108504 0)
(10.9137 0.108338 0)
(10.9206 0.108243 0)
(10.9274 0.10822 0)
(10.9341 0.108268 0)
(10.9407 0.108388 0)
(10.9472 0.108581 0)
(10.9536 0.10885 0)
(10.9599 0.109197 0)
(10.966 0.109625 0)
(10.972 0.110137 0)
(10.9778 0.110737 0)
(10.9836 0.111429 0)
(10.9892 0.112217 0)
(10.9946 0.113107 0)
(10.9999 0.114102 0)
(11.0051 0.11521 0)
(11.0101 0.116435 0)
(11.0149 0.117784 0)
(11.0196 0.119263 0)
(11.0241 0.12088 0)
(11.0285 0.122642 0)
(11.0327 0.124557 0)
(11.0367 0.126633 0)
(11.0405 0.12888 0)
(11.0441 0.131308 0)
(11.0475 0.133925 0)
(11.0507 0.136743 0)
(11.0537 0.139773 0)
(11.0565 0.143027 0)
(11.059 0.146518 0)
(11.0613 0.150259 0)
(11.0633 0.154264 0)
(11.0651 0.158549 0)
(11.0666 0.163129 0)
(11.0679 0.168022 0)
(11.0688 0.173245 0)
(11.0694 0.178816 0)
(11.0698 0.184757 0)
(11.0697 0.191087 0)
(11.0694 0.197829 0)
(11.0687 0.205007 0)
(11.0675 0.212645 0)
(11.066 0.220769 0)
(11.0641 0.229406 0)
(11.0617 0.238585 0)
(11.0589 0.248336 0)
(11.0556 0.258691 0)
(11.0517 0.269683 0)
(11.0474 0.281346 0)
(11.0424 0.293716 0)
(11.0368 0.306832 0)
(11.0306 0.320732 0)
(11.0238 0.335456 0)
(11.0162 0.351048 0)
(11.0078 0.36755 0)
(10.9986 0.385006 0)
(10.9886 0.403462 0)
(10.9776 0.422965 0)
(10.9656 0.443561 0)
(10.9526 0.465298 0)
(10.9384 0.488224 0)
(10.9229 0.512385 0)
(10.9061 0.537828 0)
(10.8879 0.564598 0)
(10.8681 0.592737 0)
(10.8465 0.622286 0)
(10.8231 0.653279 0)
(10.7976 0.685749 0)
(10.7699 0.719719 0)
(10.7397 0.755206 0)
(10.7067 0.792219 0)
(10.6706 0.830755 0)
(10.6313 0.870795 0)
(10.5881 0.91231 0)
(10.5408 0.955249 0)
(10.4889 0.999546 0)
(10.4317 1.04511 0)
(10.3688 1.09181 0)
(10.2994 1.13951 0)
(10.2227 1.18802 0)
(10.138 1.2371 0)
(10.0442 1.28648 0)
(9.94026 1.33585 0)
(9.82505 1.3848 0)
(9.69724 1.43289 0)
(9.55543 1.4796 0)
(9.39808 1.52433 0)
(9.22355 1.56639 0)
(9.03007 1.60501 0)
(8.81578 1.6393 0)
(8.57873 1.66829 0)
(8.31695 1.69089 0)
(8.02849 1.70593 0)
(7.71145 1.7121 0)
(7.36415 1.70802 0)
(6.9851 1.6922 0)
(6.57333 1.66313 0)
(6.12852 1.61928 0)
(5.6513 1.5592 0)
(5.14343 1.4816 0)
(4.60845 1.38568 0)
(10 0.0147639 0)
(10.0046 0.0438375 0)
(10.0132 0.0717475 0)
(10.0257 0.0978071 0)
(10.0419 0.121426 0)
(10.0611 0.142212 0)
(10.0826 0.160094 0)
(10.1056 0.175284 0)
(10.1293 0.188163 0)
(10.1535 0.199117 0)
(10.1779 0.208427 0)
(10.2025 0.21623 0)
(10.2274 0.222564 0)
(10.2526 0.227438 0)
(10.278 0.230879 0)
(10.3033 0.232952 0)
(10.3285 0.233752 0)
(10.3533 0.233383 0)
(10.3778 0.231948 0)
(10.4016 0.229543 0)
(10.4249 0.226264 0)
(10.4474 0.222204 0)
(10.4692 0.217467 0)
(10.4901 0.212158 0)
(10.5102 0.206392 0)
(10.5293 0.200281 0)
(10.5475 0.193939 0)
(10.5648 0.187474 0)
(10.5812 0.180986 0)
(10.5966 0.174565 0)
(10.6113 0.16829 0)
(10.6251 0.162227 0)
(10.6382 0.156428 0)
(10.6506 0.150935 0)
(10.6625 0.145775 0)
(10.6738 0.140966 0)
(10.6846 0.136514 0)
(10.695 0.13242 0)
(10.705 0.128677 0)
(10.7147 0.125273 0)
(10.7242 0.122191 0)
(10.7334 0.119415 0)
(10.7424 0.116924 0)
(10.7512 0.114697 0)
(10.7598 0.112713 0)
(10.7683 0.110952 0)
(10.7767 0.109395 0)
(10.785 0.108022 0)
(10.7932 0.106815 0)
(10.8013 0.105759 0)
(10.8093 0.104841 0)
(10.8172 0.104046 0)
(10.825 0.103365 0)
(10.8328 0.102788 0)
(10.8404 0.102307 0)
(10.848 0.101915 0)
(10.8555 0.101609 0)
(10.8629 0.101382 0)
(10.8703 0.101233 0)
(10.8775 0.101159 0)
(10.8847 0.101158 0)
(10.8917 0.101231 0)
(10.8987 0.101378 0)
(10.9056 0.1016 0)
(10.9124 0.101898 0)
(10.919 0.102273 0)
(10.9256 0.10273 0)
(10.9321 0.10327 0)
(10.9385 0.103897 0)
(10.9447 0.104614 0)
(10.9509 0.105426 0)
(10.9569 0.106338 0)
(10.9628 0.107353 0)
(10.9687 0.108478 0)
(10.9743 0.109719 0)
(10.9799 0.11108 0)
(10.9853 0.112568 0)
(10.9906 0.114191 0)
(10.9958 0.115956 0)
(11.0009 0.117871 0)
(11.0058 0.119943 0)
(11.0105 0.122181 0)
(11.0151 0.124595 0)
(11.0196 0.127195 0)
(11.0239 0.129991 0)
(11.028 0.132993 0)
(11.0319 0.136214 0)
(11.0357 0.139666 0)