/*--------------------------------*- C++ -*----------------------------------*\
| =========                 |                                                 |
| \\      /  F ield         | OpenFOAM: The Open Source CFD Toolbox           |
|  \\    /   O peration     | Version:  2306                                  |
|   \\  /    A nd           | Website:  www.openfoam.com                      |
|    \\/     M anipulation  |                                                 |
\*---------------------------------------------------------------------------*/
FoamFile
{
    version     2.0;
    format      ascii;
    arch        "LSB;label=32;scalar=64";
    class       volScalarField;
    location    "0.225";
    object      p;
}
// * * * * * * * * * * * * * * * * * * * * * * * * * * * * * * * * * * * * * //

dimensions      [0 2 -2 0 0 0 0];

internalField   nonuniform List<scalar> 
17600
(
393.541
391.497
389.72
388.489
387.726
387.219
386.802
386.395
385.977
385.554
385.133
384.721
384.317
383.92
383.529
383.142
382.761
382.389
382.027
381.681
381.352
381.045
380.761
380.502
380.269
380.061
379.879
379.72
379.582
379.463
379.361
379.271
379.192
379.121
379.056
378.995
378.937
378.879
378.822
378.764
378.705
378.644
378.582
378.518
378.453
378.386
378.317
378.248
378.177
378.106
378.034
377.962
377.89
377.817
377.745
377.673
377.601
377.53
377.46
377.39
377.321
377.253
377.186
377.12
377.055
376.991
376.929
376.867
376.807
376.748
376.691
376.635
376.581
376.528
376.476
376.427
376.378
376.332
376.288
376.245
376.204
376.165
376.129
376.094
376.062
376.032
376.004
375.979
375.956
375.936
375.919
375.905
375.894
375.886
375.881
375.88
375.882
375.888
375.898
375.911
375.929
375.951
375.977
376.008
376.043
376.084
376.129
376.179
376.234
376.295
376.361
376.433
376.51
376.592
376.681
376.775
376.875
376.981
377.092
377.209
377.331
377.458
377.59
377.727
377.869
378.014
378.163
378.316
378.47
378.627
378.785
378.944
379.103
379.261
379.418
379.572
379.724
379.872
380.016
380.155
380.29
380.418
380.541
380.657
380.766
380.868
380.963
381.051
381.133
381.208
381.276
381.339
381.394
381.445
381.489
381.529
381.564
381.594
381.621
381.642
390.812
390.042
389.115
388.251
387.561
387.038
386.618
386.236
385.856
385.467
385.073
384.679
384.289
383.904
383.525
383.151
382.783
382.423
382.075
381.74
381.421
381.122
380.843
380.588
380.356
380.149
379.964
379.802
379.661
379.537
379.429
379.334
379.25
379.174
379.104
379.038
378.975
378.913
378.852
378.791
378.729
378.666
378.602
378.536
378.469
378.401
378.331
378.261
378.19
378.118
378.045
377.972
377.9
377.827
377.754
377.682
377.61
377.539
377.468
377.398
377.329
377.261
377.193
377.127
377.062
376.998
376.935
376.874
376.814
376.755
376.697
376.641
376.587
376.533
376.482
376.432
376.384
376.338
376.293
376.25
376.209
376.171
376.134
376.099
376.067
376.037
376.009
375.984
375.962
375.942
375.925
375.911
375.9
375.892
375.887
375.886
375.888
375.894
375.904
375.918
375.936
375.958
375.985
376.016
376.051
376.092
376.138
376.188
376.244
376.305
376.372
376.444
376.522
376.605
376.694
376.789
376.89
376.996
377.108
377.226
377.349
377.477
377.611
377.749
377.891
378.038
378.188
378.341
378.496
378.654
378.812
378.971
379.13
379.288
379.444
379.597
379.748
379.895
380.038
380.176
380.309
380.437
380.559
380.674
380.782
380.884
380.978
381.065
381.145
381.219
381.286
381.347
381.402
381.451
381.495
381.533
381.567
381.597
381.622
381.644
389.507
389.158
388.629
388.016
387.424
386.91
386.478
386.097
385.737
385.375
385.008
384.636
384.264
383.896
383.534
383.178
382.829
382.488
382.158
381.84
381.536
381.249
380.98
380.731
380.502
380.294
380.106
379.939
379.789
379.657
379.539
379.433
379.338
379.252
379.172
379.097
379.026
378.957
378.889
378.821
378.754
378.686
378.618
378.55
378.48
378.41
378.339
378.268
378.196
378.123
378.05
377.977
377.904
377.831
377.758
377.685
377.613
377.542
377.471
377.401
377.332
377.263
377.196
377.13
377.064
377
376.937
376.875
376.815
376.756
376.698
376.641
376.587
376.533
376.481
376.431
376.383
376.336
376.291
376.248
376.206
376.167
376.13
376.095
376.062
376.031
376.003
375.978
375.954
375.934
375.916
375.902
375.89
375.881
375.876
375.874
375.876
375.881
375.89
375.903
375.92
375.941
375.967
375.997
376.032
376.071
376.116
376.165
376.22
376.28
376.346
376.417
376.494
376.577
376.665
376.759
376.859
376.965
377.077
377.194
377.317
377.445
377.579
377.718
377.861
378.008
378.159
378.314
378.471
378.631
378.792
378.953
379.115
379.276
379.436
379.594
379.748
379.899
380.045
380.186
380.321
380.451
380.573
380.688
380.795
380.896
380.989
381.076
381.156
381.23
381.298
381.359
381.414
381.462
381.505
381.543
381.575
381.604
381.629
381.651
388.604
388.412
388.079
387.643
387.168
386.712
386.301
385.933
385.59
385.253
384.913
384.568
384.22
383.874
383.532
383.195
382.866
382.545
382.233
381.932
381.644
381.369
381.111
380.869
380.645
380.439
380.25
380.079
379.925
379.785
379.659
379.545
379.44
379.344
379.255
379.171
379.092
379.014
378.939
378.866
378.793
378.72
378.648
378.575
378.503
378.43
378.357
378.283
378.209
378.135
378.061
377.987
377.913
377.839
377.766
377.692
377.62
377.548
377.476
377.406
377.336
377.267
377.199
377.132
377.067
377.002
376.938
376.876
376.815
376.755
376.697
376.64
376.584
376.53
376.477
376.426
376.377
376.33
376.284
376.24
376.197
376.157
376.119
376.083
376.049
376.017
375.988
375.961
375.937
375.915
375.896
375.88
375.866
375.856
375.849
375.846
375.845
375.849
375.856
375.867
375.881
375.9
375.924
375.951
375.984
376.021
376.063
376.11
376.162
376.219
376.282
376.35
376.424
376.503
376.588
376.68
376.777
376.88
376.988
377.103
377.223
377.349
377.481
377.617
377.759
377.905
378.056
378.21
378.368
378.528
378.691
378.856
379.021
379.186
379.351
379.514
379.675
379.832
379.986
380.135
380.279
380.417
380.548
380.672
380.788
380.896
380.996
381.087
381.169
381.243
381.309
381.369
381.423
381.471
381.515
381.554
381.587
381.616
381.641
381.663
387.918
387.793
387.565
387.248
386.876
386.491
386.121
385.775
385.45
385.134
384.818
384.498
384.174
383.85
383.527
383.21
382.899
382.596
382.3
382.015
381.74
381.477
381.228
380.994
380.775
380.571
380.383
380.21
380.052
379.907
379.774
379.652
379.54
379.436
379.339
379.247
379.159
379.075
378.993
378.913
378.835
378.757
378.681
378.605
378.529
378.453
378.377
378.301
378.225
378.15
378.074
377.999
377.923
377.849
377.774
377.7
377.627
377.554
377.482
377.411
377.34
377.271
377.202
377.135
377.068
377.003
376.939
376.876
376.814
376.753
376.694
376.636
376.579
376.524
376.471
376.419
376.368
376.32
376.273
376.227
376.184
376.142
376.102
376.065
376.029
375.996
375.965
375.936
375.91
375.886
375.865
375.846
375.831
375.818
375.808
375.802
375.799
375.799
375.803
375.811
375.822
375.838
375.857
375.881
375.909
375.942
375.979
376.021
376.068
376.121
376.178
376.241
376.309
376.383
376.462
376.548
376.638
376.735
376.838
376.946
377.06
377.18
377.305
377.436
377.572
377.713
377.858
378.008
378.162
378.319
378.479
378.642
378.807
378.972
379.139
379.305
379.471
379.635
379.797
379.956
380.111
380.262
380.408
380.547
380.679
380.804
380.92
381.027
381.126
381.216
381.297
381.368
381.43
381.482
381.526
381.563
381.595
381.624
381.651
381.676
387.37
387.28
387.114
386.876
386.584
386.264
385.939
385.622
385.318
385.021
384.726
384.428
384.126
383.822
383.519
383.22
382.926
382.638
382.357
382.085
381.823
381.57
381.33
381.102
380.888
380.687
380.499
380.325
380.164
380.015
379.878
379.75
379.631
379.52
379.416
379.317
379.222
379.132
379.044
378.959
378.876
378.794
378.713
378.633
378.554
378.475
378.397
378.319
378.241
378.164
378.087
378.01
377.934
377.858
377.782
377.707
377.633
377.56
377.487
377.415
377.344
377.274
377.204
377.136
377.069
377.003
376.938
376.874
376.811
376.75
376.689
376.63
376.573
376.517
376.462
376.409
376.357
376.307
376.258
376.212
376.167
376.123
376.082
376.042
376.005
375.969
375.936
375.905
375.876
375.85
375.826
375.805
375.787
375.771
375.758
375.748
375.741
375.738
375.738
375.741
375.748
375.758
375.773
375.792
375.814
375.841
375.872
375.908
375.949
375.994
376.044
376.1
376.16
376.226
376.296
376.373
376.455
376.542
376.635
376.733
376.837
376.947
377.062
377.182
377.308
377.438
377.574
377.714
377.858
378.007
378.159
378.314
378.472
378.633
378.796
378.96
379.125
379.291
379.456
379.62
379.783
379.944
380.101
380.255
380.405
380.549
380.688
380.82
380.945
381.061
381.169
381.266
381.353
381.429
381.496
381.552
381.598
381.634
381.663
381.686
386.921
386.853
386.725
386.539
386.306
386.04
385.757
385.472
385.19
384.912
384.635
384.357
384.075
383.79
383.506
383.223
382.944
382.67
382.403
382.143
381.891
381.649
381.416
381.195
380.985
380.786
380.6
380.426
380.263
380.111
379.969
379.837
379.713
379.596
379.486
379.381
379.281
379.185
379.092
379.002
378.915
378.829
378.744
378.661
378.579
378.497
378.416
378.336
378.256
378.177
378.099
378.021
377.943
377.866
377.79
377.714
377.639
377.565
377.491
377.418
377.347
377.276
377.206
377.136
377.068
377.001
376.936
376.871
376.807
376.745
376.683
376.623
376.565
376.507
376.451
376.397
376.344
376.292
376.242
376.194
376.147
376.102
376.058
376.017
375.977
375.94
375.904
375.87
375.839
375.81
375.783
375.759
375.737
375.718
375.701
375.687
375.677
375.669
375.664
375.662
375.664
375.67
375.678
375.691
375.707
375.728
375.752
375.78
375.813
375.85
375.892
375.938
375.989
376.045
376.105
376.171
376.242
376.317
376.398
376.484
376.575
376.671
376.772
376.879
376.99
377.106
377.227
377.353
377.483
377.617
377.755
377.897
378.043
378.191
378.343
378.498
378.655
378.813
378.974
379.136
379.298
379.462
379.625
379.787
379.949
380.108
380.265
380.419
380.569
380.714
380.853
380.986
381.11
381.225
381.329
381.422
381.503
381.572
381.629
381.675
386.547
386.492
386.39
386.24
386.049
385.825
385.58
385.325
385.066
384.807
384.547
384.286
384.022
383.755
383.487
383.22
382.955
382.695
382.439
382.19
381.948
381.714
381.489
381.273
381.068
380.873
380.688
380.514
380.35
380.196
380.051
379.915
379.786
379.665
379.55
379.44
379.335
379.234
379.137
379.043
378.951
378.861
378.773
378.687
378.602
378.518
378.435
378.352
378.271
378.19
378.11
378.031
377.952
377.874
377.796
377.72
377.644
377.569
377.494
377.421
377.348
377.276
377.206
377.136
377.067
376.999
376.932
376.866
376.802
376.738
376.676
376.615
376.555
376.496
376.439
376.383
376.329
376.276
376.224
376.174
376.125
376.078
376.033
375.989
375.947
375.907
375.869
375.833
375.799
375.767
375.737
375.709
375.684
375.661
375.641
375.623
375.608
375.595
375.586
375.579
375.575
375.575
375.578
375.584
375.593
375.606
375.623
375.644
375.668
375.696
375.729
375.765
375.806
375.851
375.9
375.954
376.012
376.075
376.142
376.214
376.29
376.371
376.457
376.547
376.641
376.74
376.844
376.951
377.063
377.179
377.299
377.422
377.55
377.681
377.815
377.953
378.094
378.239
378.386
378.536
378.69
378.845
379.004
379.165
379.327
379.492
379.658
379.826
379.993
380.16
380.326
380.49
380.65
380.805
380.954
381.094
381.225
381.344
381.45
381.541
386.23
386.186
386.101
385.976
385.816
385.625
385.411
385.183
384.946
384.706
384.463
384.218
383.969
383.718
383.466
383.213
382.961
382.712
382.468
382.229
381.996
381.77
381.551
381.341
381.139
380.947
380.764
380.59
380.426
380.27
380.123
379.984
379.852
379.727
379.607
379.494
379.384
379.28
379.178
379.08
378.985
378.892
378.801
378.712
378.624
378.537
378.452
378.368
378.285
378.202
378.121
378.04
377.96
377.881
377.802
377.725
377.648
377.572
377.497
377.422
377.349
377.276
377.205
377.134
377.064
376.995
376.928
376.861
376.795
376.731
376.667
376.605
376.544
376.484
376.426
376.368
376.312
376.258
376.204
376.152
376.102
376.053
376.006
375.96
375.916
375.873
375.833
375.794
375.757
375.722
375.689
375.658
375.629
375.602
375.578
375.556
375.536
375.519
375.504
375.492
375.483
375.476
375.473
375.472
375.475
375.481
375.49
375.502
375.518
375.537
375.559
375.586
375.616
375.649
375.687
375.728
375.773
375.822
375.875
375.932
375.993
376.058
376.127
376.199
376.276
376.356
376.44
376.528
376.619
376.714
376.813
376.915
377.021
377.13
377.243
377.359
377.479
377.603
377.73
377.861
377.996
378.136
378.28
378.428
378.582
378.74
378.903
379.07
379.243
379.42
379.601
379.785
379.971
380.159
380.346
380.531
380.711
380.884
381.048
381.198
385.961
385.923
385.851
385.745
385.607
385.442
385.253
385.049
384.833
384.611
384.383
384.153
383.919
383.682
383.442
383.202
382.963
382.725
382.49
382.26
382.035
381.816
381.604
381.398
381.201
381.011
380.83
380.657
380.492
380.335
380.187
380.045
379.91
379.782
379.659
379.542
379.429
379.321
379.216
379.115
379.016
378.92
378.826
378.734
378.644
378.555
378.468
378.382
378.297
378.213
378.13
378.048
377.967
377.887
377.807
377.729
377.651
377.574
377.498
377.423
377.348
377.275
377.203
377.131
377.06
376.991
376.922
376.854
376.788
376.722
376.658
376.594
376.532
376.471
376.411
376.352
376.295
376.238
376.183
376.13
376.077
376.026
375.977
375.929
375.883
375.838
375.794
375.753
375.713
375.675
375.638
375.604
375.571
375.541
375.512
375.486
375.462
375.44
375.42
375.403
375.388
375.375
375.365
375.358
375.354
375.352
375.353
375.357
375.364
375.373
375.386
375.402
375.421
375.444
375.469
375.498
375.529
375.565
375.603
375.645
375.689
375.738
375.789
375.843
375.901
375.962
376.026
376.092
376.162
376.235
376.311
376.39
376.472
376.557
376.645
376.737
376.832
376.93
377.033
377.14
377.251
377.368
377.49
377.618
377.752
377.893
378.041
378.198
378.362
378.535
378.716
378.906
379.104
379.309
379.52
379.737
379.956
380.176
380.393
380.602
385.73
385.698
385.635
385.543
385.423
385.277
385.109
384.925
384.728
384.521
384.309
384.092
383.87
383.646
383.418
383.19
382.961
382.733
382.507
382.285
382.068
381.855
381.648
381.447
381.253
381.066
380.886
380.714
380.55
380.392
380.242
380.099
379.962
379.831
379.705
379.585
379.469
379.358
379.25
379.146
379.044
378.945
378.849
378.755
378.662
378.572
378.483
378.395
378.308
378.223
378.139
378.055
377.973
377.892
377.811
377.732
377.653
377.575
377.498
377.422
377.347
377.273
377.2
377.127
377.056
376.985
376.915
376.847
376.779
376.712
376.647
376.582
376.519
376.456
376.395
376.335
376.276
376.218
376.161
376.106
376.051
375.999
375.947
375.897
375.848
375.801
375.755
375.71
375.667
375.626
375.586
375.549
375.512
375.478
375.445
375.414
375.386
375.359
375.334
375.311
375.29
375.272
375.256
375.241
375.23
375.22
375.213
375.209
375.207
375.207
375.21
375.216
375.224
375.235
375.248
375.264
375.282
375.303
375.327
375.353
375.382
375.413
375.447
375.483
375.521
375.562
375.605
375.651
375.698
375.748
375.8
375.855
375.912
375.971
376.033
376.098
376.166
376.238
376.313
376.392
376.475
376.564
376.659
376.76
376.869
376.985
377.111
377.245
377.391
377.548
377.716
377.897
378.091
378.298
378.517
378.749
378.99
379.24
379.496
379.753
385.534
385.505
385.45
385.368
385.261
385.131
384.98
384.812
384.631
384.439
384.24
384.035
383.825
383.611
383.395
383.176
382.957
382.738
382.52
382.305
382.094
381.887
381.685
381.488
381.297
381.113
380.935
380.764
380.599
380.442
380.29
380.146
380.007
379.874
379.746
379.623
379.505
379.391
379.28
379.173
379.069
378.968
378.87
378.773
378.679
378.586
378.495
378.406
378.318
378.231
378.146
378.061
377.978
377.895
377.814
377.734
377.654
377.575
377.498
377.421
377.345
377.27
377.195
377.122
377.05
376.978
376.908
376.838
376.769
376.702
376.635
376.569
376.504
376.441
376.378
376.316
376.256
376.196
376.138
376.08
376.024
375.969
375.916
375.863
375.812
375.762
375.713
375.666
375.62
375.576
375.533
375.492
375.452
375.413
375.376
375.341
375.308
375.276
375.246
375.218
375.191
375.166
375.144
375.123
375.104
375.087
375.072
375.059
375.048
375.039
375.032
375.027
375.024
375.023
375.024
375.027
375.032
375.039
375.048
375.059
375.071
375.086
375.102
375.119
375.138
375.159
375.181
375.205
375.23
375.257
375.285
375.314
375.345
375.378
375.413
375.45
375.49
375.532
375.577
375.626
375.68
375.738
375.802
375.872
375.95
376.037
376.133
376.24
376.359
376.491
376.637
376.798
376.975
377.17
377.381
377.611
377.857
378.119
378.395
378.683
385.367
385.341
385.292
385.218
385.122
385.003
384.866
384.712
384.544
384.365
384.177
383.983
383.783
383.579
383.372
383.162
382.951
382.74
382.529
382.321
382.115
381.913
381.715
381.522
381.335
381.152
380.976
380.806
380.642
380.484
380.332
380.186
380.046
379.911
379.781
379.656
379.536
379.419
379.307
379.198
379.092
378.988
378.888
378.789
378.693
378.599
378.507
378.416
378.326
378.238
378.152
378.066
377.982
377.898
377.816
377.734
377.654
377.575
377.496
377.418
377.341
377.266
377.19
377.116
377.043
376.971
376.899
376.828
376.759
376.69
376.622
376.555
376.489
376.424
376.36
376.296
376.234
376.173
376.113
376.054
375.996
375.939
375.883
375.828
375.775
375.722
375.671
375.621
375.572
375.525
375.478
375.433
375.389
375.347
375.306
375.267
375.228
375.192
375.156
375.123
375.09
375.06
375.03
375.003
374.976
374.952
374.929
374.907
374.887
374.869
374.852
374.837
374.823
374.81
374.799
374.789
374.781
374.774
374.768
374.763
374.759
374.756
374.754
374.753
374.753
374.754
374.755
374.756
374.759
374.762
374.765
374.769
374.774
374.78
374.787
374.795
374.805
374.816
374.831
374.848
374.869
374.894
374.925
374.962
375.007
375.059
375.122
375.196
375.282
375.383
375.499
375.632
375.784
375.955
376.148
376.362
376.598
376.856
377.136
377.435
385.226
385.203
385.157
385.09
385.002
384.894
384.767
384.624
384.467
384.299
384.122
383.937
383.746
383.55
383.351
383.149
382.945
382.74
382.536
382.333
382.132
381.935
381.741
381.551
381.365
381.185
381.01
380.841
380.677
380.519
380.367
380.22
380.079
379.943
379.811
379.685
379.562
379.444
379.33
379.219
379.111
379.006
378.903
378.803
378.706
378.61
378.516
378.424
378.333
378.244
378.156
378.07
377.984
377.9
377.817
377.734
377.653
377.573
377.493
377.415
377.337
377.26
377.184
377.109
377.035
376.962
376.889
376.818
376.747
376.677
376.608
376.54
376.472
376.406
376.34
376.276
376.212
376.149
376.087
376.027
375.967
375.908
375.849
375.792
375.736
375.681
375.627
375.575
375.523
375.472
375.422
375.374
375.326
375.28
375.235
375.191
375.148
375.106
375.066
375.026
374.988
374.951
374.915
374.881
374.847
374.815
374.784
374.754
374.725
374.697
374.671
374.645
374.62
374.596
374.572
374.55
374.528
374.507
374.486
374.466
374.445
374.426
374.406
374.386
374.366
374.346
374.326
374.306
374.285
374.264
374.243
374.221
374.199
374.177
374.155
374.133
374.113
374.093
374.075
374.059
374.046
374.037
374.032
374.033
374.041
374.057
374.083
374.12
374.17
374.234
374.315
374.414
374.533
374.674
374.839
375.028
375.243
375.485
375.755
376.051
385.109
385.088
385.046
384.984
384.902
384.801
384.683
384.549
384.401
384.242
384.073
383.896
383.713
383.524
383.332
383.136
382.938
382.739
382.54
382.342
382.146
381.952
381.761
381.574
381.391
381.212
381.039
380.87
380.707
380.549
380.396
380.249
380.107
379.969
379.837
379.709
379.585
379.465
379.349
379.236
379.127
379.02
378.916
378.815
378.716
378.619
378.523
378.43
378.338
378.248
378.159
378.072
377.985
377.9
377.816
377.733
377.651
377.57
377.49
377.41
377.332
377.254
377.178
377.102
377.027
376.952
376.879
376.806
376.734
376.663
376.593
376.524
376.455
376.387
376.32
376.254
376.189
376.125
376.061
375.998
375.936
375.875
375.815
375.756
375.697
375.64
375.583
375.527
375.472
375.418
375.365
375.313
375.262
375.211
375.162
375.114
375.066
375.019
374.974
374.929
374.885
374.842
374.8
374.758
374.717
374.678
374.638
374.6
374.562
374.525
374.488
374.452
374.416
374.38
374.345
374.31
374.274
374.239
374.203
374.167
374.131
374.094
374.056
374.018
373.979
373.938
373.897
373.854
373.81
373.764
373.718
373.67
373.621
373.57
373.519
373.467
373.414
373.362
373.31
373.26
373.211
373.165
373.123
373.086
373.055
373.032
373.018
373.015
373.025
373.049
373.09
373.15
373.232
373.336
373.466
373.623
373.81
374.027
374.276
374.558
385.014
384.994
384.955
384.896
384.819
384.725
384.613
384.486
384.346
384.194
384.032
383.862
383.685
383.502
383.315
383.125
382.932
382.738
382.543
382.349
382.156
381.965
381.777
381.592
381.411
381.234
381.061
380.893
380.73
380.573
380.42
380.272
380.129
379.991
379.857
379.728
379.603
379.482
379.364
379.25
379.139
379.031
378.926
378.824
378.723
378.625
378.529
378.435
378.342
378.251
378.161
378.072
377.985
377.899
377.814
377.731
377.648
377.566
377.485
377.405
377.326
377.247
377.17
377.093
377.017
376.942
376.867
376.794
376.721
376.649
376.577
376.507
376.437
376.368
376.299
376.232
376.165
376.099
376.033
375.969
375.905
375.842
375.779
375.718
375.657
375.597
375.537
375.479
375.421
375.364
375.307
375.251
375.196
375.142
375.089
375.036
374.983
374.932
374.881
374.831
374.781
374.732
374.683
374.635
374.587
374.539
374.492
374.445
374.398
374.352
374.305
374.258
374.212
374.164
374.117
374.069
374.02
373.971
373.92
373.869
373.816
373.762
373.707
373.649
373.59
373.53
373.466
373.401
373.334
373.264
373.191
373.117
373.04
372.96
372.879
372.796
372.711
372.625
372.538
372.451
372.365
372.281
372.2
372.122
372.05
371.984
371.927
371.881
371.847
371.827
371.825
371.842
371.881
371.944
372.034
372.154
372.305
372.491
372.713
372.972
384.94
384.92
384.883
384.828
384.755
384.664
384.557
384.436
384.301
384.155
383.999
383.834
383.662
383.484
383.301
383.115
382.926
382.736
382.544
382.353
382.163
381.975
381.789
381.606
381.426
381.25
381.078
380.911
380.749
380.591
380.438
380.29
380.146
380.007
379.873
379.743
379.616
379.494
379.376
379.261
379.149
379.04
378.934
378.83
378.729
378.63
378.532
378.437
378.344
378.252
378.161
378.072
377.984
377.897
377.812
377.727
377.644
377.561
377.479
377.398
377.318
377.239
377.161
377.083
377.007
376.93
376.855
376.78
376.707
376.633
376.561
376.489
376.418
376.347
376.278
376.209
376.14
376.072
376.005
375.939
375.873
375.808
375.743
375.679
375.616
375.553
375.491
375.43
375.369
375.308
375.248
375.189
375.13
375.072
375.014
374.957
374.9
374.844
374.788
374.732
374.676
374.621
374.566
374.511
374.456
374.401
374.345
374.29
374.234
374.179
374.122
374.065
374.007
373.949
373.889
373.828
373.766
373.703
373.638
373.571
373.502
373.431
373.357
373.281
373.203
373.121
373.036
372.949
372.857
372.763
372.664
372.563
372.457
372.348
372.236
372.12
372.002
371.881
371.758
371.634
371.509
371.384
371.261
371.141
371.024
370.914
370.811
370.717
370.636
370.569
370.519
370.488
370.48
370.497
370.543
370.62
370.731
370.88
371.068
371.297
384.885
384.866
384.83
384.777
384.706
384.619
384.516
384.399
384.268
384.126
383.973
383.812
383.644
383.47
383.29
383.107
382.921
382.734
382.545
382.356
382.168
381.981
381.797
381.615
381.437
381.262
381.091
380.924
380.762
380.604
380.451
380.302
380.158
380.019
379.884
379.753
379.626
379.503
379.384
379.268
379.155
379.045
378.938
378.834
378.732
378.632
378.534
378.438
378.344
378.251
378.16
378.07
377.981
377.894
377.808
377.722
377.638
377.555
377.473
377.391
377.31
377.23
377.151
377.073
376.995
376.918
376.842
376.766
376.692
376.617
376.544
376.471
376.398
376.326
376.255
376.185
376.115
376.045
375.976
375.908
375.84
375.773
375.706
375.64
375.574
375.509
375.444
375.38
375.316
375.252
375.189
375.126
375.064
375.002
374.94
374.878
374.817
374.755
374.694
374.632
374.571
374.51
374.448
374.386
374.324
374.262
374.199
374.135
374.071
374.005
373.939
373.872
373.803
373.733
373.662
373.589
373.513
373.436
373.356
373.274
373.189
373.101
373.009
372.915
372.816
372.714
372.607
372.497
372.382
372.262
372.137
372.008
371.874
371.735
371.591
371.442
371.289
371.132
370.971
370.808
370.642
370.475
370.308
370.142
369.979
369.82
369.668
369.524
369.391
369.272
369.169
369.087
369.027
368.993
368.989
369.018
369.084
369.19
369.339
369.534
384.848
384.83
384.795
384.743
384.674
384.589
384.488
384.373
384.246
384.106
383.956
383.798
383.632
383.46
383.283
383.102
382.918
382.732
382.545
382.358
382.171
381.986
381.802
381.621
381.443
381.269
381.099
380.932
380.77
380.612
380.459
380.31
380.166
380.026
379.89
379.759
379.632
379.508
379.388
379.272
379.158
379.048
378.94
378.835
378.732
378.632
378.533
378.437
378.342
378.249
378.157
378.066
377.977
377.889
377.802
377.717
377.632
377.548
377.465
377.383
377.301
377.221
377.141
377.062
376.983
376.905
376.828
376.752
376.676
376.6
376.526
376.451
376.378
376.305
376.232
376.16
376.088
376.017
375.947
375.877
375.807
375.738
375.669
375.6
375.532
375.464
375.397
375.33
375.263
375.196
375.13
375.063
374.997
374.931
374.865
374.799
374.733
374.666
374.6
374.533
374.466
374.399
374.331
374.262
374.193
374.123
374.052
373.98
373.907
373.833
373.757
373.68
373.6
373.519
373.436
373.35
373.261
373.17
373.076
372.978
372.877
372.772
372.663
372.55
372.431
372.308
372.18
372.047
371.908
371.762
371.611
371.454
371.29
371.121
370.944
370.762
370.573
370.379
370.179
369.975
369.766
369.555
369.341
369.127
368.914
368.703
368.498
368.299
368.111
367.935
367.775
367.635
367.518
367.428
367.368
367.344
367.359
367.417
367.521
367.676
384.83
384.812
384.777
384.726
384.658
384.574
384.474
384.361
384.234
384.096
383.948
383.79
383.626
383.455
383.279
383.099
382.916
382.731
382.544
382.358
382.172
381.987
381.804
381.624
381.446
381.272
381.102
380.935
380.773
380.615
380.462
380.313
380.169
380.028
379.893
379.761
379.633
379.509
379.389
379.272
379.158
379.047
378.939
378.834
378.731
378.63
378.531
378.434
378.338
378.245
378.152
378.062
377.972
377.883
377.796
377.71
377.624
377.54
377.456
377.373
377.291
377.21
377.13
377.05
376.97
376.892
376.814
376.736
376.659
376.583
376.507
376.432
376.357
376.282
376.208
376.135
376.062
375.989
375.917
375.845
375.773
375.702
375.631
375.56
375.49
375.419
375.349
375.279
375.209
375.139
375.07
375
374.93
374.86
374.79
374.719
374.649
374.578
374.506
374.434
374.361
374.288
374.214
374.139
374.063
373.985
373.907
373.827
373.745
373.662
373.576
373.489
373.399
373.306
373.211
373.113
373.012
372.907
372.798
372.685
372.568
372.446
372.319
372.187
372.049
371.906
371.756
371.599
371.436
371.265
371.088
370.902
370.709
370.507
370.298
370.081
369.856
369.623
369.383
369.136
368.883
368.624
368.362
368.096
367.83
367.564
367.301
367.044
366.795
366.557
366.334
366.131
365.95
365.797
365.676
365.592
365.549
365.553
365.607
365.716
384.829
384.811
384.777
384.725
384.657
384.573
384.474
384.36
384.234
384.095
383.947
383.79
383.625
383.454
383.278
383.098
382.915
382.73
382.544
382.357
382.171
381.986
381.803
381.623
381.445
381.271
381.1
380.934
380.772
380.614
380.46
380.311
380.167
380.026
379.89
379.759
379.631
379.507
379.386
379.269
379.155
379.044
378.936
378.83
378.727
378.625
378.526
378.429
378.333
378.239
378.147
378.055
377.965
377.876
377.789
377.702
377.616
377.531
377.447
377.363
377.281
377.199
377.117
377.037
376.957
376.877
376.798
376.72
376.642
376.565
376.488
376.411
376.335
376.259
376.184
376.109
376.034
375.96
375.886
375.812
375.739
375.666
375.593
375.52
375.447
375.374
375.301
375.228
375.156
375.083
375.01
374.936
374.863
374.789
374.715
374.64
374.565
374.489
374.413
374.335
374.257
374.178
374.097
374.016
373.933
373.848
373.762
373.674
373.584
373.492
373.397
373.299
373.199
373.096
372.989
372.879
372.764
372.646
372.523
372.395
372.262
372.123
371.979
371.828
371.671
371.507
371.335
371.156
370.968
370.772
370.567
370.353
370.129
369.896
369.653
369.4
369.138
368.865
368.583
368.292
367.992
367.685
367.371
367.051
366.728
366.403
366.078
365.757
365.441
365.136
364.845
364.571
364.32
364.097
363.907
363.755
363.647
363.589
363.586
363.642
384.847
384.829
384.794
384.742
384.673
384.588
384.487
384.372
384.244
384.104
383.955
383.796
383.63
383.458
383.281
383.1
382.916
382.729
382.542
382.355
382.168
381.983
381.799
381.618
381.44
381.265
381.095
380.928
380.765
380.607
380.454
380.305
380.16
380.02
379.884
379.752
379.624
379.5
379.38
379.263
379.149
379.038
378.929
378.824
378.72
378.619
378.519
378.422
378.326
378.232
378.139
378.048
377.957
377.868
377.78
377.693
377.606
377.521
377.436
377.352
377.269
377.187
377.105
377.023
376.942
376.862
376.782
376.703
376.624
376.546
376.468
376.39
376.313
376.236
376.159
376.083
376.007
375.931
375.855
375.78
375.704
375.629
375.554
375.479
375.404
375.328
375.253
375.177
375.102
375.026
374.95
374.873
374.796
374.718
374.64
374.561
374.482
374.401
374.32
374.237
374.153
374.068
373.982
373.894
373.804
373.713
373.619
373.523
373.424
373.323
373.219
373.112
373.002
372.887
372.769
372.647
372.52
372.388
372.251
372.108
371.96
371.805
371.643
371.474
371.297
371.112
370.919
370.717
370.505
370.283
370.051
369.808
369.554
369.289
369.012
368.722
368.421
368.108
367.782
367.445
367.097
366.738
366.369
365.993
365.609
365.22
364.829
364.439
364.051
363.672
363.304
362.953
362.624
362.322
362.054
361.826
361.645
361.516
361.447
361.444
384.882
384.864
384.828
384.774
384.704
384.617
384.514
384.396
384.265
384.123
383.971
383.809
383.641
383.466
383.287
383.104
382.918
382.73
382.541
382.352
382.163
381.976
381.792
381.61
381.431
381.256
381.084
380.917
380.754
380.596
380.442
380.293
380.149
380.009
379.873
379.741
379.614
379.49
379.37
379.253
379.139
379.028
378.92
378.815
378.711
378.61
378.511
378.413
378.317
378.223
378.13
378.039
377.948
377.859
377.77
377.683
377.596
377.51
377.425
377.341
377.257
377.174
377.091
377.009
376.927
376.846
376.766
376.686
376.606
376.526
376.447
376.369
376.29
376.212
376.134
376.056
375.979
375.901
375.824
375.747
375.67
375.592
375.515
375.438
375.36
375.283
375.205
375.127
375.048
374.969
374.89
374.81
374.729
374.648
374.566
374.483
374.399
374.314
374.227
374.14
374.051
373.96
373.868
373.773
373.677
373.578
373.477
373.374
373.267
373.157
373.044
372.928
372.807
372.682
372.553
372.419
372.279
372.134
371.983
371.826
371.662
371.491
371.312
371.124
370.928
370.723
370.508
370.283
370.047
369.8
369.541
369.269
368.984
368.686
368.374
368.048
367.708
367.353
366.983
366.598
366.199
365.786
365.361
364.923
364.475
364.018
363.556
363.09
362.625
362.164
361.712
361.275
360.858
360.468
360.112
359.797
359.532
359.323
359.179
359.107
384.936
384.917
384.88
384.824
384.751
384.661
384.554