/*--------------------------------*- C++ -*----------------------------------*\
| =========                 |                                                 |
| \\      /  F ield         | OpenFOAM: The Open Source CFD Toolbox           |
|  \\    /   O peration     | Version:  2306                                  |
|   \\  /    A nd           | Website:  www.openfoam.com                      |
|    \\/     M anipulation  |                                                 |
\*---------------------------------------------------------------------------*/
FoamFile
{
    version     2.0;
    format      ascii;
    arch        "LSB;label=32;scalar=64";
    class       surfaceScalarField;
    location    "0.225";
    object      phi;
}
// * * * * * * * * * * * * * * * * * * * * * * * * * * * * * * * * * * * * * //

dimensions      [0 3 -1 0 0 0 0];

oriented        oriented;

internalField   nonuniform List<scalar> 
34640
(
0.0049244
7.55987e-05
0.00478599
0.000138414
0.00463052
0.000155467
0.00447385
0.000156669
0.00431583
0.000158023
0.00415467
0.000161162
0.00399075
0.00016392
0.00382542
0.00016533
0.00366031
0.000165105
0.00349681
0.000163498
0.00333583
0.000160982
0.00317796
0.000157867
0.00302375
0.000154218
0.00287375
0.000149992
0.00272862
0.000145136
0.00258899
0.000139632
0.00245554
0.000133441
0.00232889
0.00012665
0.0022094
0.000119491
0.00209747
0.000111939
0.00199339
0.000104075
0.00189738
9.60093e-05
0.00180952
8.78649e-05
0.00172975
7.97705e-05
0.00165789
7.18534e-05
0.00159366
6.42329e-05
0.00153665
5.70132e-05
0.00148637
5.02794e-05
0.00144227
4.40937e-05
0.00140378
3.84958e-05
0.00137028
3.35021e-05
0.00134117
2.911e-05
0.00131587
2.52987e-05
0.00129383
2.20358e-05
0.00127455
1.92785e-05
0.00125757
1.69786e-05
0.00124249
1.50812e-05
0.00122897
1.35225e-05
0.00121672
1.22526e-05
0.00120549
1.12314e-05
0.00119506
1.04218e-05
0.00118528
9.78856e-06
0.00117598
9.29906e-06
0.00116705
8.92422e-06
0.00115841
8.63925e-06
0.00114999
8.42355e-06
0.00114173
8.26031e-06
0.00113359
8.13593e-06
0.00112555
8.03961e-06
0.00111759
7.9628e-06
0.00110969
7.89895e-06
0.00110185
7.8431e-06
0.00109406
7.79165e-06
0.00108632
7.74211e-06
0.00107862
7.69283e-06
0.00107098
7.64287e-06
0.00106339
7.59178e-06
0.00105585
7.53951e-06
0.00104836
7.48629e-06
0.00104093
7.43257e-06
0.00103355
7.3789e-06
0.00102622
7.32593e-06
0.00101895
7.27436e-06
0.00101173
7.22491e-06
0.00100455
7.17827e-06
0.000997412
7.13515e-06
0.000990316
7.0962e-06
0.000983254
7.06205e-06
0.000976221
7.0333e-06
0.00096921
7.01049e-06
0.000962216
6.99414e-06
0.000955231
6.98469e-06
0.000948249
6.98257e-06
0.000941261
6.9882e-06
0.000934259
7.00202e-06
0.000927234
7.02444e-06
0.000920178
7.05584e-06
0.000913082
7.09662e-06
0.000905934
7.14716e-06
0.000898727
7.20781e-06
0.000891448
7.27897e-06
0.000884087
7.36099e-06
0.000876632
7.45427e-06
0.000869073
7.55918e-06
0.000861397
7.67611e-06
0.000853592
7.80547e-06
0.000845644
7.94765e-06
0.000837541
8.10307e-06
0.000829269
8.27215e-06
0.000820813
8.45532e-06
0.00081216
8.65299e-06
0.000803295
8.86561e-06
0.000794201
9.09359e-06
0.000784864
9.33735e-06
0.000775267
9.59728e-06
0.000765393
9.87378e-06
0.000755226
1.01672e-05
0.000744748
1.04778e-05
0.000733942
1.08059e-05
0.00072279
1.11517e-05
0.000711275
1.15153e-05
0.000699378
1.18967e-05
0.000687082
1.22958e-05
0.00067437
1.27125e-05
0.000661223
1.31462e-05
0.000647627
1.35968e-05
0.000633563
1.40634e-05
0.000619018
1.45451e-05
0.000603978
1.50406e-05
0.000588429
1.55483e-05
0.000572363
1.60665e-05
0.00055577
1.6593e-05
0.000538645
1.7125e-05
0.000520985
1.76595e-05
0.000502793
1.81927e-05
0.000484072
1.87205e-05
0.000464834
1.92383e-05
0.000445093
1.97406e-05
0.000424871
2.02217e-05
0.000404196
2.06752e-05
0.000383102
2.1094e-05
0.000361631
2.1471e-05
0.000339833
2.17983e-05
0.000317765
2.20681e-05
0.000295492
2.22725e-05
0.000273088
2.2404e-05
0.000250633
2.24554e-05
0.000228212
2.24206e-05
0.000205918
2.22943e-05
0.000183845
2.2073e-05
0.000162091
2.17543e-05
0.000140753
2.13376e-05
0.00011993
2.08235e-05
9.97159e-05
2.02139e-05
8.02051e-05
1.95108e-05
6.14897e-05
1.87155e-05
4.36616e-05
1.78281e-05
2.68132e-05
1.68483e-05
1.10361e-05
1.57771e-05
-3.58454e-06
1.46207e-05
-1.69919e-05
1.34074e-05
-2.91436e-05
1.21516e-05
-4.00441e-05
1.09005e-05
-4.97457e-05
9.70157e-06
-5.83325e-05
8.58686e-06
-6.58887e-05
7.55616e-06
-7.24634e-05
6.57465e-06
-7.80594e-05
5.59606e-06
-8.2652e-05
4.59254e-06
-8.62378e-05
3.58578e-06
-8.89119e-05
2.67413e-06
-9.08587e-05
1.94671e-06
-9.22648e-05
1.40613e-06
-9.32101e-05
9.45301e-07
-9.36912e-05
4.81154e-07
-9.36849e-05
-6.34641e-09
-9.31228e-05
-5.62143e-07
-9.17785e-05
-1.34425e-06
-8.93359e-05
-2.44261e-06
-3.58708e-06
-8.57488e-05
0.00503752
3.80749e-05
0.0050774
9.85349e-05
0.00509715
0.00013572
0.00510102
0.000152795
0.00509795
0.000161096
0.00509063
0.000168478
0.0050778
0.000176757
0.00505833
0.000184798
0.00503218
0.00019126
0.005
0.000195672
0.00496268
0.000198302
0.00492096
0.000199591
0.00487537
0.000199809
0.00482632
0.000199042
0.00477418
0.000197273
0.00471935
0.000194459
0.0046622
0.000190594
0.00460311
0.000185743
0.00454259
0.000180008
0.00448106
0.000173464
0.00441894
0.0001662
0.00435661
0.000158338
0.00429446
0.00015002
0.00423282
0.000141403
0.00417203
0.000132645
0.00411236
0.000123904
0.00405405
0.000115322
0.0039973
0.000107028
0.00394227
9.91261e-05
0.00388907
9.17004e-05
0.00383776
8.48062e-05
0.00378839
7.8478e-05
0.00374097
7.27263e-05
0.00369546
6.75463e-05
0.00365182
6.29156e-05
0.00360998
5.88137e-05
0.00356982
5.52461e-05
0.00353129
5.20515e-05
0.00349432
4.92229e-05
0.00345882
4.67361e-05
0.00342468
4.45533e-05
0.00339184
4.26368e-05
0.00336018
4.09507e-05
0.00332965
3.9462e-05
0.00330014
3.81412e-05
0.0032716
3.69628e-05
0.00324396
3.59043e-05
0.00321715
3.49471e-05
0.00319111
3.4075e-05
0.0031658
3.32748e-05
0.00314117
3.25353e-05
0.00311716
3.18475e-05
0.00309375
3.12041e-05
0.00307089
3.05992e-05
0.00304856
3.00284e-05
0.00302671
2.94882e-05
0.00300533
2.89758e-05
0.00298438
2.84895e-05
0.00296384
2.80277e-05
0.00294368
2.75895e-05
0.00292388
2.71744e-05
0.00290443
2.6782e-05
0.00288529
2.64121e-05
0.00286645
2.6065e-05
0.00284789
2.57406e-05
0.00282958
2.54395e-05
0.00281152
2.51617e-05
0.00279367
2.4908e-05
0.00277603
2.46786e-05
0.00275856
2.44741e-05
0.00274126
2.4295e-05
0.0027241
2.41417e-05
0.00270707
2.40147e-05
0.00269015
2.39146e-05
0.00267331
2.38421e-05
0.00265653
2.3798e-05
0.00263981
2.37829e-05
0.0026231
2.37976e-05
0.00260641
2.38429e-05
0.0025897
2.39197e-05
0.00257295
2.40289e-05
0.00255614
2.41715e-05
0.00253924
2.43484e-05
0.00252224
2.45607e-05
0.00250511
2.48096e-05
0.00248782
2.50964e-05
0.00247034
2.54221e-05
0.00245266
2.57883e-05
0.00243473
2.61963e-05
0.00241654
2.66476e-05
0.00239805
2.71438e-05
0.00237923
2.76864e-05
0.00236004
2.82772e-05
0.00234046
2.89178e-05
0.00232045
2.961e-05
0.00229997
3.03557e-05
0.00227898
3.11568e-05
0.00225744
3.20149e-05
0.00223532
3.29322e-05
0.00221256
3.39103e-05
0.00218912
3.49512e-05
0.00216496
3.60564e-05
0.00214003
3.72278e-05
0.00211428
3.84664e-05
0.00208765
3.97729e-05
0.0020601
4.11497e-05
0.00203156
4.25976e-05
0.00200199
4.41167e-05
0.00197132
4.57069e-05
0.0019395
4.73678e-05
0.00190647
4.90986e-05
0.00187217
5.08979e-05
0.00183653
5.27628e-05
0.0017995
5.469e-05
0.00176102
5.66745e-05
0.00172103
5.87107e-05
0.00167947
6.07911e-05
0.00163631
6.29068e-05
0.00159148
6.50471e-05
0.00154496
6.71995e-05
0.0014967
6.9349e-05
0.0014467
7.14786e-05
0.00139493
7.35686e-05
0.0013414
7.55965e-05
0.00128613
7.75372e-05
0.00122917
7.93626e-05
0.00117059
8.10416e-05
0.00111047
8.25401e-05
0.00104894
8.38214e-05
0.000986169
8.48459e-05
0.000922351
8.55725e-05
0.00085773
8.59585e-05
0.000792592
8.59615e-05
0.000727265
8.55404e-05
0.000662118
8.46583e-05
0.000597549
8.32843e-05
0.00053398
8.13968e-05
0.000471841
7.89878e-05
0.00041155
7.60679e-05
0.000353502
7.26686e-05
0.000298055
6.88537e-05
0.000245509
6.46982e-05
0.000196109
6.03006e-05
0.000150048
5.57623e-05
0.000107468
5.11664e-05
6.84574e-05
4.65669e-05
3.30308e-05
4.20013e-05
1.17597e-06
3.74508e-05
-2.70139e-05
3.27824e-05
-5.16721e-05
2.8244e-05
-7.30101e-05
2.40121e-05
-9.14302e-05
2.03668e-05
-0.000107164
1.71401e-05
-0.000120346
1.41274e-05
-0.000131085
1.12195e-05
-0.000139521
8.42974e-06
-0.000145783
5.69994e-06
-0.000149808
2.68134e-06
-0.000151442
-8.09465e-07
-4.09417e-06
-0.000150934
0.00501445
2.36272e-05
0.00504447
6.85094e-05
0.00507418
0.000106011
0.00509859
0.000128388
0.00511781
0.000141877
0.00513503
0.000151254
0.00515196
0.000159828
0.00516818
0.000168576
0.00518272
0.000176724
0.00519492
0.000183472
0.00520465
0.000188572
0.00521208
0.000192158
0.0052174
0.000194495
0.00522066
0.000195784
0.00522183
0.000196102
0.00522084
0.000195444
0.00521764
0.000193794
0.00521223
0.000191159
0.00520467
0.000187566
0.00519502
0.000183107
0.00518337
0.000177854
0.0051698
0.000171904
0.00515445
0.000165375
0.00513745
0.000158403
0.00511897
0.000151128
0.00509918
0.000143692
0.00507827
0.000136233
0.00505642
0.000128878
0.00503381
0.000121736
0.00501061
0.000114901
0.00498697
0.000108442
0.00496304
0.00010241
0.00493893
9.68347e-05
0.00491475
9.17303e-05
0.00489057
8.7096e-05
0.00486646
8.29213e-05
0.00484252
7.91792e-05
0.00481876
7.5815e-05
0.00479519
7.27945e-05
0.00477183
7.0093e-05
0.0047487
6.76831e-05
0.00472581
6.55345e-05
0.00470314
6.36159e-05
0.0046807
6.18977e-05
0.00465849
6.03523e-05
0.0046365
5.89554e-05
0.00461472
5.76856e-05
0.00459314
5.65243e-05
0.00457176
5.54555e-05
0.00455057
5.44659e-05
0.00452956
5.35441e-05
0.00450873
5.26807e-05
0.00448806
5.18681e-05
0.00446756
5.11002e-05
0.00444722
5.03721e-05
0.00442703
4.96801e-05
0.00440698
4.90215e-05
0.00438708
4.83941e-05
0.00436731
4.77966e-05
0.00434767
4.7228e-05
0.00432816
4.6688e-05
0.00430876
4.61764e-05
0.00428948
4.56934e-05
0.00427031
4.52393e-05
0.00425123
4.48147e-05
0.00423225
4.44203e-05
0.00421336
4.40569e-05
0.00419454
4.37255e-05
0.00417579
4.3427e-05
0.0041571
4.31626e-05
0.00413846
4.29336e-05
0.00411986
4.27406e-05
0.00410129
4.25848e-05
0.00408274
4.24676e-05
0.00406419
4.23905e-05
0.00404564
4.23548e-05
0.00402706
4.23622e-05
0.00400844
4.24141e-05
0.00398977
4.25123e-05
0.00397103
4.26585e-05
0.00395221
4.28546e-05
0.00393328
4.31024e-05
0.00391422
4.34042e-05
0.00389502
4.3762e-05
0.00387565
4.41781e-05
0.00385609
4.4655e-05
0.00383632
4.51951e-05
0.00381631
4.58012e-05
0.00379603
4.64761e-05
0.00377545
4.72228e-05
0.00375455
4.80443e-05
0.00373329
4.89439e-05
0.00371164
4.99252e-05
0.00368957
5.09915e-05
0.00366703
5.21468e-05
0.00364399
5.33948e-05
0.00362041
5.47396e-05
0.00359624
5.61853e-05
0.00357144
5.77363e-05
0.00354595
5.93968e-05
0.00351973
6.11714e-05
0.00349272
6.30646e-05
0.00346487
6.50808e-05
0.00343611
6.72246e-05
0.00340638
6.95002e-05
0.00337562
7.19125e-05
0.00334375
7.44662e-05
0.0033107
7.71649e-05
0.0032764
8.00123e-05
0.00324076
8.30109e-05
0.00320369
8.6165e-05
0.00316511
8.94766e-05
0.00312493
9.2947e-05
0.00308304
9.65764e-05
0.00303935
0.000100364
0.00299375
0.000104307
0.00294614
0.000108403
0.0028964
0.000112645
0.00284443
0.000117024
0.00279009
0.000121532
0.00273329
0.000126153
0.0026739
0.00013087
0.0026118
0.000135664
0.00254689
0.000140508
0.00247906
0.000145373
0.0024082
0.000150224
0.00233422
0.000155018
0.00225705
0.000159709
0.00217663
0.000164242
0.00209292
0.000168554
0.00200592
0.000172575
0.00191565
0.000176226
0.00182219
0.00017942
0.00172566
0.000182068
0.00162625
0.000184072
0.00152421
0.000185329
0.00141987
0.000185731
0.00131369
0.000185173
0.0012062
0.000183554
0.00109809
0.000180784
0.000990146
0.000176793
0.00088331
0.000171535
0.000778613
0.000164998
0.000677159
0.000157216
0.000580049
0.000148277
0.000488291
0.000138325
0.000402727
0.000127565
0.000323918
0.000116259
0.000251952
0.000104748
0.000186787
9.34094e-05
0.000128242
8.25574e-05
7.62303e-05
7.23781e-05
3.04085e-05
6.29619e-05
-9.32988e-06
5.38657e-05
-4.33363e-05
4.52259e-05
-7.2135e-05
3.72283e-05
-9.64001e-05
2.99651e-05
-0.000116385
2.26661e-05
-0.000132149
1.49542e-05
7.69679e-06
-0.00014394
0.00500634
1.72885e-05
0.00502385
5.09992e-05
0.00504705
8.28145e-05
0.00506939
0.000106044
0.00508908
0.000122188
0.00510685
0.000133478
0.00512443
0.00014225
0.00514265
0.000150363
0.00516108
0.000158285
0.00517925
0.000165303
0.00519682
0.000171003
0.00521368
0.000175303
0.00522985
0.000178325
0.00524536
0.00018027
0.00526017
0.000181294
0.00527418
0.000181439
0.00528726
0.000180714
0.00529929
0.000179121
0.00531018
0.000176682
0.00531983
0.000173451
0.00532819
0.000169499
0.00533519
0.000164904
0.0053408
0.000159764
0.00534502
0.000154185
0.00534786
0.000148282
0.00534938
0.000142173
0.00534964
0.000135975
0.00534872
0.000129797
0.00534672
0.000123736
0.00534375
0.000117876
0.0053399
0.000112288
0.00533529
0.00010702
0.00533001
0.00010211
0.00532417
9.75776e-05
0.00531783
9.34291e-05
0.0053111
8.96577e-05
0.00530403
8.62465e-05
0.00529667
8.31741e-05
0.00528905
8.04131e-05
0.00528121
7.7938e-05
0.00527317
7.57251e-05
0.00526495
7.37503e-05
0.00525658
7.19885e-05
0.00524806
7.04147e-05
0.00523941
6.90054e-05
0.00523062
6.77388e-05
0.00522171
6.65953e-05
0.00521268
6.55579e-05
0.00520352
6.46117e-05
0.00519425
6.37439e-05
0.00518485
6.29438e-05
0.00517532
6.22022e-05
0.00516568
6.15115e-05
0.00515592
6.08657e-05
0.00514603
6.02598e-05
0.00513602
5.96901e-05
0.00512589
5.91535e-05
0.00511563
5.86481e-05
0.00510526
5.81723e-05
0.00509476
5.77252e-05
0.00508414
5.73065e-05
0.0050734
5.69162e-05
0.00506254
5.65545e-05
0.00505156
5.62221e-05
0.00504045
5.59197e-05
0.00502922
5.56484e-05
0.00501787
5.54093e-05
0.00500639
5.52038e-05
0.00499479
5.50332e-05
0.00498305
5.48994e-05
0.00497118
5.48039e-05
0.00495917
5.4748e-05
0.00494702
5.47336e-05
0.00493473
5.47626e-05
0.00492228
5.48372e-05
0.00490968
5.49595e-05
0.00489691
5.51318e-05
0.00488397
5.53564e-05
0.00487084
5.56359e-05
0.00485753
5.59728e-05
0.00484401
5.63699e-05
0.00483028
5.68302e-05
0.00481633
5.73566e-05
0.00480214
5.79526e-05
0.0047877
5.86213e-05
0.00477299
5.93665e-05
0.00475799
6.01919e-05
0.00474269
6.11015e-05
0.00472707
6.20995e-05
0.0047111
6.31904e-05
0.00469476
6.43789e-05
0.00467804
6.56698e-05
0.00466089
6.70683e-05
0.00464331
6.85799e-05
0.00462524
7.02103e-05
0.00460667
7.19653e-05
0.00458756
7.38513e-05
0.00456787
7.58748e-05
0.00454756
7.80425e-05
0.0045266
8.03614e-05
0.00450493
8.28389e-05
0.00448251
8.54825e-05
0.0044593
8.82998e-05
0.00443522
9.12988e-05
0.00441023
9.44877e-05
0.00438427
9.78747e-05
0.00435727
0.000101469
0.00432916
0.000105277
0.00429986
0.000109309
0.0042693
0.000113572
0.00423739
0.000118075
0.00420404
0.000122826
0.00416916
0.000127831
0.00413264
0.000133096
0.00409437
0.000138628
0.00405425
0.000144431
0.00401215
0.000150507
0.00396793
0.000156858
0.00392147
0.000163483
0.00387262
0.00017038
0.00382124
0.000177542
0.00376715
0.00018496
0.00371019
0.00019262
0.00365019
0.000200505
0.00358697
0.000208592
0.00352034
0.000216852
0.00345011
0.000225248
0.00337609
0.000233738
0.00329806
0.000242267
0.00321584
0.000250776
0.00312922
0.000259189
0.00303803
0.000267422
0.00294208
0.00027537
0.00284122
0.000282928
0.00273531
0.000289981
0.00262425
0.000296388
0.00250798
0.000301998
0.00238651
0.000306647
0.0022599
0.000310163
0.00212833
0.00031236
0.00199207
0.000313052
0.00185155
0.000312048
0.00170738
0.000309172
0.00156034
0.000304256
0.00141148
0.00029714
0.00126211
0.00028769
0.00111385
0.000275824
0.000968564
0.000261546
0.00082834
0.000244973
0.000695367
0.000226382
0.00057171
0.000206215
0.000459014
0.000185074
0.000358351
0.000163625
0.000269576
0.00014264
0.000191923
0.000122879
0.000124288
0.000104863
6.5603e-05
8.86505e-05
1.50093e-05
7.32598e-05
-2.80465e-05
5.801e-05
4.35894e-05
-6.39391e-05
0.00500365
1.36379e-05
0.00501435
4.03031e-05
0.00503119
6.59761e-05
0.00504934
8.78854e-05
0.00506702
0.00010451
0.00508362
0.000116875
0.00509961
0.000126268
0.0051158
0.000134164
0.00513256
0.000141532
0.00514965
0.000148213
0.00516675
0.000153906
0.00518365
0.000158395
0.0052003
0.000161682
0.00521666
0.000163903
0.00523276
0.000165199
0.00524854
0.000165659
0.00526393
0.000165325
0.00527883
0.000164221
0.00529313
0.000162373
0.00530676
0.000159823
0.00531963
0.000156632
0.00533166
0.00015287
0.00534281
0.000148618
0.00535303
0.000143968
0.00536229
0.000139015
0.00537061
0.000133857
0.00537799
0.000128592
0.00538448
0.000123312
0.00539011
0.0001181
0.00539496
0.00011303
0.00539908
0.000108164
0.00540255
0.000103549
0.00540544
9.92209e-05
0.00540782
9.52004e-05
0.00540975
9.14974e-05
0.0054113
8.8111e-05
0.00541251
8.50339e-05
0.00541343
8.22546e-05
0.00541409
7.97546e-05
0.00541451
7.75126e-05
0.00541473
7.55077e-05
0.00541476
7.37195e-05
0.00541462
7.21277e-05
0.00541433
7.07119e-05
0.00541388
6.94521e-05
0.00541329
6.83296e-05
0.00541256
6.73272e-05
0.00541169
6.64293e-05
0.00541067
6.56225e-05
0.00540952
6.48949e-05
0.00540823
6.42363e-05
0.0054068
6.36381e-05
0.00540521
6.30931e-05
0.00540348
6.25952e-05
0.0054016
6.21394e-05
0.00539957
6.1722e-05
0.00539739
6.13398e-05
0.00539504
6.09907e-05
0.00539254
6.06731e-05
0.00538988
6.03859e-05
0.00538706
6.01287e-05
0.00538408
5.99013e-05
0.00538093
5.9704e-05
0.00537761
5.95375e-05
0.00537413
5.94025e-05
0.00537048
5.93001e-05
0.00536665
5.92316e-05
0.00536266
5.91985e-05
0.00535849
5.92025e-05
0.00535414
5.92452e-05
0.00534962
5.93285e-05
0.00534491
5.94545e-05
0.00534002
5.9625e-05
0.00533494
5.98425e-05
0.00532967
6.01094e-05
0.0053242
6.04284e-05
0.00531853
6.08021e-05
0.00531265
6.12335e-05
0.00530656
6.17256e-05
0.00530025
6.22816e-05
0.00529372
6.29049e-05
0.00528695
6.35992e-05
0.00527994
6.43681e-05
0.00527268
6.52156e-05
0.00526515
6.61461e-05
0.00525735
6.7164e-05
0.00524927
6.8274e-05
0.00524089
6.9481e-05
0.0052322
7.07904e-05
0.00522318
7.22077e-05
0.00521382
7.37388e-05
0.0052041
7.53898e-05
0.005194
7.71675e-05
0.00518351
7.90785e-05
0.00517259
8.11302e-05
0.00516122
8.33303e-05
0.00514939
8.56866e-05
0.00513705
8.82078e-05
0.00512419
9.09026e-05
0.00511077
9.37801e-05
0.00509676
9.68502e-05
0.00508212
0.000100123
0.00506681
0.000103609
0.00505079
0.000107318
0.00503402
0.000111263
0.00501644
0.000115455
0.004998
0.000119906
0.00497865
0.000124628
0.00495833
0.000129634
0.00493696
0.000134937
0.00491449
0.000140549
0.00489083
0.000146485
0.0048659
0.000152755
0.00483962
0.000159374
0.0048119
0.000166353
0.00478263
0.000173704
0.0047517
0.000181437
0.00471899
0.000189563
0.00468438
0.000198089
0.00464774
0.000207021
0.00460892
0.000216364
0.00456776
0.00022612
0.0045241
0.000236286
0.00447775
0.000246856
0.00442852
0.000257822
0.0043762
0.000269166
0.00432058
0.000280867
0.00426143
0.000292895
0.00419848
0.000305212
0.00413149
0.000317771
0.00406016
0.000330512
0.00398422
0.000343363
0.00390336
0.000356239
0.00381724
0.000369042
0.00372556
0.000381661
0.00362799
0.000393963
0.00352419
0.000405797
0.00341384
0.000416991
0.00329665
0.000427357
0.00317232
0.000436683
0.00304064
0.000444737
0.00290144
0.000451247
0.00275466
0.000455951
0.00260032
0.000458594
0.00243861
0.000458853
0.00226989
0.000456411
0.00209475
0.000450961
0.00191408
0.000442223
0.00172908
0.000429971
0.00154142
0.000414043
0.0013533
0.00039433
0.00116755
0.000370822
0.000987517
0.000343663
0.000816901
0.000313256
0.000659408
0.000280372
0.000518088
0.000246184
0.000394727
0.000212011
0.000288873
0.000179114
0.000198324
0.000148559
0.000121139
0.000120774
0.00500249
1.11484e-05
0.00500982
3.29722e-05
0.00502171
5.40913e-05
0.00503621
7.33814e-05
0.00505142
8.93033e-05
0.00506648
0.000101814
0.00508114
0.000111609
0.00509573
0.000119566
0.00511075
0.000126517
0.00512619
0.000132769
0.00514189
0.000138212
0.00515762
0.000142662
0.00517324
0.00014606
0.00518869
0.000148451
0.00520396
0.000149932
0.00521902
0.0001506
0.00523382
0.000150523
0.0052483
0.000149744
0.00526237
0.000148299
0.00527597
0.000146228
0.00528902
0.000143583
0.00530146
0.000140427
0.00531325
0.00013683
0.00532434
0.000132871
0.00533473
0.000128631
0.00534439
0.000124194
0.00535334
0.000119643
0.0053616
0.000115056
0.00536919
0.000110505
0.00537617
0.000106055
0.00538257
0.000101761
0.00538845
9.76643e-05
0.00539388
9.37993e-05
0.00539889
9.01875e-05
0.00540355
8.68409e-05
0.00540789
8.37637e-05
0.00541197
8.09542e-05
0.00541582
7.84052e-05
0.00541947
7.61045e-05
0.00542295
7.40362e-05
0.00542627
7.21826e-05
0.00542947
7.05269e-05
0.00543254
6.90521e-05
0.00543551
6.77414e-05
0.00543839
6.65783e-05
0.00544117
6.55468e-05
0.00544386
6.46318e-05
0.00544647
6.38198e-05
0.005449
6.30986e-05
0.00545144
6.24572e-05
0.00545379
6.18865e-05
0.00545604
6.13784e-05
0.00545821
6.09259e-05
0.00546028
6.05233e-05
0.00546226
6.01659e-05
0.00546413
5.98498e-05
0.0054659
5.9572e-05
0.00546756
5.93301e-05
0.00546911
5.91227e-05
0.00547055
5.89485e-05
0.00547187
5.88069e-05
0.00547307
5.86978e-05
0.00547415
5.86214e-05
0.00547511
5.85782e-05
0.00547595
5.8569e-05
0.00547665
5.85948e-05
0.00547723
5.86571e-05
0.00547767
5.87571e-05
0.00547797
5.88968e-05
0.00547814
5.90778e-05
0.00547817
5.93021e-05
0.00547805
5.95719e-05
0.00547779
5.98895e-05
0.00547737
6.02574e-05
0.0054768
6.06782e-05
0.00547608
6.11547e-05
0.00547519
6.16901e-05
0.00547413
6.22874e-05
0.00547291
6.29501e-05
0.00547151
6.36816e-05
0.00546993
6.44859e-05
0.00546816
6.53669e-05
0.0054662
6.63288e-05
0.00546404
6.73761e-05
0.00546167
6.85137e-05
0.00545909
6.97464e-05
0.00545628
7.10797e-05
0.00545325
7.25191e-05
0.00544997
7.40706e-05
0.00544643
7.57407e-05
0.00544264
7.75358e-05
0.00543856
7.94631e-05
0.0054342
8.15301e-05
0.00542953
8.37446e-05
0.00542455
8.6115e-05
0.00541923
8.86501e-05
0.00541356
9.13591e-05
0.00540751
9.42518e-05
0.00540108
9.73384e-05
0.00539423
0.00010063
0.00538694
0.000104137
0.00537919
0.000107873
0.00537095
0.000111849
0.00536219
0.000116078
0.00535288
0.000120575
0.00534298
0.000125353
0.00533246
0.000130428
0.00532127
0.000135813
0.00530938
0.000141526
0.00529673
0.000147583
0.00528328
0.000154001
0.00526897
0.000160796
0.00525374
0.000167986
0.00523752
0.00017559
0.00522025
0.000183624
0.00520185
0.000192106
0.00518223
0.000201054
0.00516131
0.000210485
0.00513899
0.000220414
0.00511515
0.000230858
0.00508968
0.00024183
0.00506246
0.000253341
0.00503334
0.000265403
0.00500218
0.000278022
0.0049688
0.000291201
0.00493303
0.000304939
0.00489466
0.000319232
0.00485349
0.000334068
0.00480927
0.000349427
0.00476176
0.000365283
0.00471067
0.000381599
0.00465571
0.000398327
0.00459654
0.000415409
0.00453281
0.000432771
0.00446415
0.000450327
0.00439014
0.000467972
0.00431035
0.00048558
0.00422434
0.000503006
0.00413162
0.000520081
0.00403169
0.000536609
0.00392406
0.000552368
0.0038082
0.000567102
0.00368362
0.000580538
0.00354983
0.000592376
0.00340642
0.000602269
0.00325299
0.00060984
0.00308926
0.000614685
0.00291513
0.000616353
0.00273069
0.00061441
0.00253626
0.000608473
0.00233254
0.000598055
0.00212063
0.000582733
0.00190213
0.000562162
0.00167924
0.000536142
0.00145502
0.00050459
0.0012336
0.000467609
0.00102007
0.000425541
0.000820036
0.000379146
0.00063873
0.000329866
0.000279953
0.000479915
0.00500185
9.29987e-06
0.00500728
2.75391e-05
0.00501604
4.53329e-05
0.00502755
6.18695e-05
0.00504038
7.64715e-05
0.00505372
8.8477e-05
0.00506711
9.82165e-05
0.00508051
0.000106167
0.00509415
0.000112874
0.00510819
0.000118736
0.00512255
0.000123849
0.00513708
0.000128133
0.00515162
0.000131516
0.00516608
0.000133993
0.0051804
0.000135612
0.00519455
0.000136453
0.00520848
0.000136587
0.00522216
0.000136074
0.0052355
0.000134956
0.00524845
0.000133277
0.00526095
0.000131082
0.00527295
0.000128428
0.00528441
0.000125374
0.00529529
0.00012199
0.00530557
0.000118344
0.00531526
0.00011451
0.00532434
0.000110558
0.00533284
0.000106556
0.00534078
0.000102565
0.00534819
9.86433e-05
0.00535512
9.48376e-05
0.00536159
9.11875e-05
0.00536767
8.77236e-05
0.00537339
8.44677e-05
0.0053788
8.14338e-05
0.00538393
7.86289e-05
0.00538883
7.60544e-05
0.00539353
7.37068e-05
0.00539806
7.15779e-05
0.00540244
6.96561e-05
0.00540669
6.7928e-05
0.00541084
6.63795e-05
0.00541489
6.49967e-05
0.00541887
6.37658e-05
0.00542278
6.26729e-05
0.00542662
6.17045e-05
0.0054304
6.08479e-05
0.00543413
6.00912e-05
0.00543781
5.94234e-05
0.00544143
5.88349e-05
0.005445
5.83172e-05
0.00544851
5.78629e-05
0.00545197
5.74657e-05
0.00545538
5.71202e-05
0.00545872
5.68218e-05
0.005462
5.65671e-05
0.00546522
5.63529e-05
0.00546837
5.61771e-05
0.00547146
5.60381e-05
0.00547447
5.59346e-05
0.00547741
5.58662e-05
0.00548028
5.58326e-05
0.00548307
5.58339e-05
0.00548577
5.58707e-05
0.0054884
5.59437e-05
0.00549094
5.6054e-05
0.00549339
5.62028e-05
0.00549576
5.63917e-05
0.00549803
5.66225e-05
0.00550022
5.68968e-05
0.0055023
5.72169e-05
0.00550429
5.75849e-05
0.00550617
5.80033e-05
0.00550796
5.84746e-05
0.00550963
5.90017e-05
0.0055112
5.95876e-05
0.00551265
6.02353e-05
0.00551399
6.09482e-05
0.00551521
6.17301e-05
0.00551631
6.25845e-05
0.00551728
6.35156e-05
0.00551812
6.45276e-05
0.00551882
6.5625e-05
0.00551939
6.68126e-05
0.00551981
6.80955e-05
0.00552007
6.94791e-05
0.00552018
7.0969e-05
0.00552013
7.25713e-05
0.00551991
7.42924e-05
0.00551951
7.6139e-05
0.00551893
7.81183e-05
0.00551815
8.0238e-05
0.00551718
8.2506e-05
0.00551599
8.49308e-05
0.00551459
8.75214e-05
0.00551295
9.02874e-05
0.00551107
9.32387e-05
0.00550893
9.63859e-05
0.00550653
9.97402e-05
0.00550385
0.000103313
0.00550087
0.000107118
0.00549758
0.000111167
0.00549395
0.000115473
0.00548998
0.000120053
0.00548563
0.000124919
0.0054809
0.000130089
0.00547574
0.000135579
0.00547015
0.000141407
0.00546409
0.000147589
0.00545753
0.000154145
0.00545043
0.000161095
0.00544277
0.000168458
0.0054345
0.000176255
0.00542558
0.000184507
0.00541597
0.000193236
0.00540561
0.000202464
0.00539446
0.000212214
0.00538243
0.000222507
0.00536948
0.000233365
0.00535553
0.000244812
0.00534049
0.000256869
0.00532428
0.000269555
0.00530679
0.000282891
0.00528792
0.000296893
0.00526754
0.000311578
0.00524552
0.000326959
0.00522171
0.000343043
0.00519594
0.000359837
0.00516803
0.000377339
0.00513777
0.000395545
0.00510493
0.000414439
0.00506925
0.000434001
0.00503046
0.000454199
0.00498824
0.000474991
0.00494225
0.000496321
0.0048921
0.00051812
0.00483738
0.0005403
0.00477763
0.000562755
0.00471235
0.000585357
0.00464101
0.000607953
0.00456301
0.000630364
0.00447773
0.000652381
0.00438451
0.000673765
0.00428264
0.00069424
0.00417142
0.000713492
0.0040501
0.000731159
0.00391795
0.000746834
0.00377425
0.000760058
0.00361831
0.000770349
0.0034496
0.000777184
0.00326766
0.000779989
0.00307226
0.000778141
0.00286345
0.000770969
0.00264167
0.000757924
0.00240784
0.000738415
0.00216362
0.000711836
0.00191136
0.000677797
0.00165433
0.000636171
0.0013971
0.000587102
0.000531133
0.00114592
0.00500144
7.86098e-06
0.00500568
2.33027e-05
0.00501255
3.84553e-05
0.00502174
5.26818e-05
0.00503256
6.56473e-05
0.00504425
7.67959e-05
0.00505635
8.61129e-05
0.00506867
9.38469e-05
0.00508122
0.000100326
0.00509409
0.000105866
0.00510729
0.000110647
0.00512073
0.000114695
0.00513427
0.000117969
0.00514782
0.000120447
0.00516129
0.000122147
0.00517462
0.000123121
0.00518777
0.000123433
0.0052007
0.000123144
0.00521335
0.000122303
0.00522567
0.000120956
0.00523761
0.000119146
0.00524911
0.000116922
0.00526015
0.000114338
0.00527069
0.000111451
0.00528071
0.000108322
0.00529021
0.000105013
0.00529918
0.000101586
0.00530764
9.80986e-05
0.0053156
9.46051e-05
0.00532309
9.11543e-05
0.00533013
8.7789e-05
0.00533678
8.45445e-05
0.00534305
8.14492e-05
0.005349
7.85244e-05
0.00535464
7.57846e-05
0.00536003
7.32387e-05
0.0053652
7.089e-05
0.00537017
6.87377e-05
0.00537497
6.67767e-05
0.00537963
6.49988e-05
0.00538416
6.33941e-05
0.00538859
6.19515e-05
0.00539293
6.06597e-05
0.00539718
5.9507e-05
0.00540137
5.84822e-05
0.00540551
5.75738e-05
0.00540958
5.67711e-05
0.00541361
5.60636e-05
0.00541759
5.54419e-05
0.00542153
5.48974e-05
0.00542542
5.44226e-05
0.00542928
5.40107e-05
0.00543309
5.36559e-05
0.00543685
5.33534e-05
0.00544058
5.30989e-05
0.00544425
5.28891e-05
0.00544788
5.27212e-05
0.00545147
5.25931e-05
0.005455
5.25033e-05
0.00545849
5.24506e-05
0.00546192
5.24345e-05
0.0054653
5.24549e-05
0.00546862
5.25117e-05
0.00547188
5.26057e-05
0.00547509
5.27374e-05
0.00547824
5.29081e-05
0.00548132
5.31189e-05
0.00548434
5.33714e-05
0.0054873
5.36673e-05
0.00549018
5.40086e-05
0.005493
5.43973e-05
0.00549575
5.48358e-05
0.00549843
5.53265e-05
0.00550103
5.58721e-05
0.00550356
5.64756e-05
0.00550601
5.71398e-05
0.00550837
5.78683e-05
0.00551066
5.86643e-05
0.00551286
5.95317e-05
0.00551497
6.04743e-05
0.00551698
6.14963e-05
0.00551891
6.26022e-05
0.00552074
6.37966e-05
0.00552247
6.50845e-05
0.00552409
6.64712e-05
0.00552561
6.79623e-05
0.00552701
6.95637e-05
0.0055283
7.12816e-05
0.00552947
7.31228e-05
0.00553052
7.50941e-05
0.00553143
7.72033e-05
0.00553221
7.9458e-05
0.00553285
8.18667e-05
0.00553334
8.44382e-05
0.00553368
8.71818e-05
0.00553386
9.01076e-05
0.00553388
9.32259e-05
0.00553371
9.65477e-05
0.00553337
0.000100085
0.00553283
0.000103849
0.0055321
0.000107854
0.00553115
0.000112114
0.00552998
0.000116642
0.00552858
0.000121453
0.00552694
0.000126565
0.00552503
0.000131992
0.00552286
0.000137754
0.0055204
0.000143868
0.00551763
0.000150353
0.00551455
0.00015723
0.00551112
0.000164519
0.00550734
0.000172243
0.00550317
0.000180423
0.00549859
0.000189083
0.00549358
0.000198247
0.00548811
0.000207939
0.00548214
0.000218186
0.00547563
0.000229013
0.00546855
0.000240446
0.00546085
0.000252511
0.00545248
0.000265236
0.00544339
0.000278646
0.00543352
0.000292767
0.00542279
0.000307625
0.00541112
0.000323243
0.00539843
0.000339645
0.00538463
0.00035685
0.00536959
0.000374877
0.00535319
0.00039374
0.00533528
0.000413449
0.00531571
0.000434011
0.00529428
0.000455425
0.0052708
0.000477685
0.00524502
0.000500774
0.00521667
0.00052467
0.00518545
0.000549333
0.00515104
0.000574718
0.00511303
0.000600757
0.00507102
0.000627371
0.00502452
0.000654454
0.004973
0.000681885
0.00491587
0.000709509
0.00485249
0.000737149
0.00478214
0.000764585
0.00470407