/*--------------------------------*- C++ -*----------------------------------*\
| =========                 |                                                 |
| \\      /  F ield         | OpenFOAM: The Open Source CFD Toolbox           |
|  \\    /   O peration     | Version:  2306                                  |
|   \\  /    A nd           | Website:  www.openfoam.com                      |
|    \\/     M anipulation  |                                                 |
\*---------------------------------------------------------------------------*/
FoamFile
{
    version     2.0;
    format      ascii;
    arch        "LSB;label=32;scalar=64";
    class       volVectorField;
    location    "0.225";
    object      U;
}
// * * * * * * * * * * * * * * * * * * * * * * * * * * * * * * * * * * * * * //

dimensions      [0 1 -1 0 0 0 0];

internalField   nonuniform List<vector> 
17600
(
(9.80708 0.0850068 0)
(9.62282 0.1805 0)
(9.41196 0.217949 0)
(9.14628 0.225578 0)
(8.83439 0.2251 0)
(8.49836 0.225385 0)
(8.15616 0.226736 0)
(7.81672 0.227129 0)
(7.48269 0.225219 0)
(7.15415 0.220818 0)
(6.83067 0.214448 0)
(6.51243 0.206753 0)
(6.20026 0.19816 0)
(5.89551 0.188852 0)
(5.59966 0.178847 0)
(5.31425 0.168129 0)
(5.04059 0.156697 0)
(4.78012 0.144613 0)
(4.53373 0.131894 0)
(4.3022 0.118628 0)
(4.0862 0.104998 0)
(3.88622 0.0912589 0)
(3.70252 0.0777046 0)
(3.53514 0.0646285 0)
(3.38384 0.0523001 0)
(3.24813 0.0409453 0)
(3.12727 0.0307338 0)
(3.02036 0.0217712 0)
(2.92635 0.0141004 0)
(2.8441 0.00770672 0)
(2.7724 0.0025297 0)
(2.71004 -0.00152482 0)
(2.65586 -0.00457077 0)
(2.60871 -0.00673268 0)
(2.56756 -0.00813312 0)
(2.53144 -0.00889392 0)
(2.49949 -0.00912469 0)
(2.47097 -0.00895627 0)
(2.44527 -0.00850983 0)
(2.42185 -0.00787928 0)
(2.40025 -0.00713372 0)
(2.38009 -0.00632435 0)
(2.36104 -0.00548958 0)
(2.34285 -0.00465794 0)
(2.32531 -0.00385008 0)
(2.30827 -0.00308042 0)
(2.2916 -0.00235859 0)
(2.27522 -0.00169055 0)
(2.25906 -0.00107947 0)
(2.24306 -0.000526306 0)
(2.22721 -3.02487e-05 0)
(2.21147 0.000410856 0)
(2.19584 0.000800161 0)
(2.18031 0.00114148 0)
(2.16488 0.00143903 0)
(2.14955 0.00169717 0)
(2.13431 0.00192026 0)
(2.11918 0.00211252 0)
(2.10416 0.00227796 0)
(2.08924 0.00242032 0)
(2.07444 0.00254307 0)
(2.05973 0.00264933 0)
(2.04513 0.00274196 0)
(2.03064 0.00282349 0)
(2.01624 0.00289617 0)
(2.00193 0.00296201 0)
(1.9877 0.00302275 0)
(1.97354 0.00307995 0)
(1.95945 0.00313494 0)
(1.94541 0.00318887 0)
(1.93141 0.0032427 0)
(1.91743 0.00329722 0)
(1.90347 0.00335313 0)
(1.8895 0.00341113 0)
(1.87551 0.00347185 0)
(1.86149 0.00353594 0)
(1.84742 0.00360392 0)
(1.83327 0.00367629 0)
(1.81903 0.00375347 0)
(1.80468 0.00383584 0)
(1.79019 0.00392375 0)
(1.77556 0.00401751 0)
(1.76075 0.00411742 0)
(1.74574 0.00422373 0)
(1.73051 0.00433668 0)
(1.71503 0.00445648 0)
(1.69929 0.00458334 0)
(1.68324 0.00471742 0)
(1.66687 0.00485886 0)
(1.65015 0.00500778 0)
(1.63305 0.00516426 0)
(1.61554 0.00532835 0)
(1.59758 0.00550003 0)
(1.57916 0.00567924 0)
(1.56023 0.00586587 0)
(1.54077 0.00605971 0)
(1.52074 0.00626048 0)
(1.5001 0.00646778 0)
(1.47882 0.00668111 0)
(1.45687 0.0068998 0)
(1.43422 0.00712305 0)
(1.41081 0.00734983 0)
(1.38663 0.00757887 0)
(1.36163 0.00780867 0)
(1.33578 0.00803751 0)
(1.30905 0.008264 0)
(1.28139 0.00848674 0)
(1.25279 0.00870393 0)
(1.22322 0.0089134 0)
(1.19264 0.00911276 0)
(1.16103 0.00929939 0)
(1.12838 0.00947032 0)
(1.09467 0.009622 0)
(1.05989 0.00975029 0)
(1.02404 0.00985073 0)
(0.987127 0.00991854 0)
(0.949169 0.00994881 0)
(0.910189 0.00993651 0)
(0.870223 0.00987671 0)
(0.82932 0.00976473 0)
(0.787542 0.00959644 0)
(0.744966 0.00936852 0)
(0.701681 0.00907887 0)
(0.657797 0.00872704 0)
(0.613434 0.00831471 0)
(0.568733 0.00784619 0)
(0.523844 0.00732896 0)
(0.478936 0.006774 0)
(0.434186 0.00619604 0)
(0.38978 0.00561335 0)
(0.345911 0.00504695 0)
(0.302774 0.00451892 0)
(0.260566 0.00404969 0)
(0.219478 0.00365434 0)
(0.1797 0.00333862 0)
(0.141418 0.0030951 0)
(0.104817 0.00290041 0)
(0.0700842 0.0027153 0)
(0.0374025 0.00248904 0)
(0.00693727 0.00217373 0)
(-0.021127 0.00175344 0)
(-0.0466777 0.00119247 0)
(-0.0697255 0.000536637 0)
(-0.0903242 -0.000138413 0)
(-0.108611 -0.0007425 0)
(-0.124753 -0.00120146 0)
(-0.13889 -0.00149276 0)
(-0.151072 -0.00167696 0)
(-0.16125 -0.00187147 0)
(-0.169389 -0.00209329 0)
(-0.175585 -0.00225552 0)
(-0.180151 -0.00225443 0)
(-0.183475 -0.00211978 0)
(-0.18581 -0.00196221 0)
(-0.187227 -0.00185639 0)
(-0.187709 -0.00181515 0)
(-0.187187 -0.0018765 0)
(-0.185341 -0.00220987 0)
(-0.181547 -0.00295276 0)
(-0.175334 -0.003943 0)
(10.0008 0.122279 0)
(10.0676 0.272137 0)
(10.1383 0.342321 0)
(10.1915 0.367553 0)
(10.2161 0.377243 0)
(10.2123 0.385769 0)
(10.1866 0.395783 0)
(10.1458 0.40522 0)
(10.094 0.411969 0)
(10.033 0.415277 0)
(9.96332 0.41546 0)
(9.88493 0.413208 0)
(9.79809 0.40907 0)
(9.70347 0.403325 0)
(9.60187 0.396017 0)
(9.49434 0.387101 0)
(9.38178 0.376511 0)
(9.26523 0.364236 0)
(9.14543 0.350294 0)
(9.02323 0.334783 0)
(8.89946 0.317888 0)
(8.77496 0.299859 0)
(8.65048 0.280991 0)
(8.52675 0.261605 0)
(8.40441 0.242028 0)
(8.28405 0.222583 0)
(8.16616 0.203569 0)
(8.05118 0.185254 0)
(7.93943 0.167862 0)
(7.83121 0.151567 0)
(7.72667 0.13649 0)
(7.62596 0.122705 0)
(7.5291 0.110233 0)
(7.4361 0.0990646 0)
(7.34687 0.0891483 0)
(7.26133 0.0804185 0)
(7.17929 0.0727849 0)
(7.10058 0.0661685 0)
(7.02507 0.0604896 0)
(6.95257 0.0556592 0)
(6.88292 0.0515802 0)
(6.81594 0.0481521 0)
(6.75145 0.0452781 0)
(6.68928 0.0428688 0)
(6.62926 0.0408455 0)
(6.57124 0.0391401 0)
(6.51508 0.0376952 0)
(6.46065 0.0364627 0)
(6.40783 0.0354023 0)
(6.35651 0.0344811 0)
(6.30659 0.0336718 0)
(6.25797 0.0329525 0)
(6.21058 0.0323058 0)
(6.16433 0.0317178 0)
(6.11916 0.0311778 0)
(6.07499 0.0306777 0)
(6.03178 0.0302114 0)
(5.98946 0.0297746 0)
(5.94799 0.0293642 0)
(5.9073 0.0289781 0)
(5.86736 0.0286152 0)
(5.82813 0.0282748 0)
(5.78954 0.0279569 0)
(5.75158 0.0276617 0)
(5.71419 0.0273897 0)
(5.67733 0.0271417 0)
(5.64097 0.0269184 0)
(5.60507 0.0267209 0)
(5.56959 0.0265502 0)
(5.53449 0.0264072 0)
(5.49973 0.0262931 0)
(5.46528 0.0262088 0)
(5.4311 0.0261553 0)
(5.39716 0.0261335 0)
(5.3634 0.0261444 0)
(5.32979 0.0261891 0)
(5.2963 0.0262687 0)
(5.26288 0.0263843 0)
(5.2295 0.026537 0)
(5.1961 0.026728 0)
(5.16265 0.0269586 0)
(5.1291 0.0272299 0)
(5.0954 0.0275434 0)
(5.06152 0.0279005 0)
(5.02739 0.0283026 0)
(4.99298 0.0287512 0)
(4.95823 0.0292479 0)
(4.92308 0.0297943 0)
(4.88748 0.0303922 0)
(4.85138 0.0310432 0)
(4.81471 0.0317493 0)
(4.77741 0.0325123 0)
(4.73943 0.033334 0)
(4.70068 0.0342164 0)
(4.6611 0.0351614 0)
(4.62062 0.036171 0)
(4.57917 0.037247 0)
(4.53666 0.0383914 0)
(4.49302 0.0396059 0)
(4.44816 0.0408921 0)
(4.40198 0.0422516 0)
(4.35441 0.0436856 0)
(4.30535 0.0451954 0)
(4.25469 0.0467814 0)
(4.20233 0.048444 0)
(4.14818 0.0501825 0)
(4.09212 0.0519951 0)
(4.03405 0.0538795 0)
(3.97384 0.0558323 0)
(3.91139 0.0578492 0)
(3.84657 0.0599254 0)
(3.77927 0.0620541 0)
(3.70936 0.0642278 0)
(3.63673 0.0664373 0)
(3.56125 0.0686712 0)
(3.48281 0.0709165 0)
(3.40131 0.0731577 0)
(3.31662 0.075377 0)
(3.22866 0.0775538 0)
(3.13734 0.0796649 0)
(3.04259 0.0816841 0)
(2.94435 0.0835822 0)
(2.84259 0.0853272 0)
(2.7373 0.0868845 0)
(2.62851 0.088217 0)
(2.51628 0.0892854 0)
(2.40071 0.0900496 0)
(2.28197 0.0904688 0)
(2.16027 0.0905029 0)
(2.03589 0.090114 0)
(1.9092 0.0892677 0)
(1.78063 0.0879354 0)
(1.65071 0.0860971 0)
(1.52007 0.0837436 0)
(1.38939 0.0808791 0)
(1.25944 0.0775207 0)
(1.13107 0.0737007 0)
(1.00513 0.0694707 0)
(0.882486 0.0649064 0)
(0.763959 0.0601074 0)
(0.6503 0.0552324 0)
(0.542175 0.0504045 0)
(0.440114 0.0457766 0)
(0.344543 0.0414522 0)
(0.255794 0.0374352 0)
(0.174114 0.0336048 0)
(0.0995951 0.0297584 0)
(0.0322747 0.0257607 0)
(-0.0276818 0.0216451 0)
(-0.0804076 0.017538 0)
(-0.126251 0.0137668 0)
(-0.16593 0.0106018 0)
(-0.200048 0.00811629 0)
(-0.228892 0.0059735 0)
(-0.252709 0.00389027 0)
(-0.271797 0.0017751 0)
(-0.286512 -0.000491976 0)
(-0.296826 -0.0034343 0)
(-0.302343 -0.007263 0)
(-0.303001 -0.0110084 0)
(10.0003 0.0614122 0)
(10.0359 0.160323 0)
(10.0898 0.227823 0)
(10.1516 0.268451 0)
(10.2101 0.293286 0)
(10.2592 0.312151 0)
(10.298 0.330013 0)
(10.3292 0.34748 0)
(10.3556 0.363366 0)
(10.3789 0.376572 0)
(10.3993 0.3867 0)
(10.4165 0.39393 0)
(10.4298 0.398644 0)
(10.4388 0.401151 0)
(10.4433 0.401594 0)
(10.4434 0.399983 0)
(10.4391 0.396276 0)
(10.4303 0.390452 0)
(10.4173 0.382571 0)
(10.4001 0.372764 0)
(10.3788 0.361216 0)
(10.3536 0.348159 0)
(10.3247 0.333863 0)
(10.2925 0.318627 0)
(10.2571 0.302761 0)
(10.2189 0.286579 0)
(10.1783 0.270384 0)
(10.1356 0.254452 0)
(10.0911 0.239022 0)
(10.0453 0.224292 0)
(9.99841 0.210408 0)
(9.95077 0.197472 0)
(9.90263 0.185534 0)
(9.85424 0.174612 0)
(9.80578 0.164684 0)
(9.75742 0.155713 0)
(9.70926 0.147639 0)
(9.66143 0.140407 0)
(9.61401 0.133963 0)
(9.56703 0.128242 0)
(9.52051 0.123169 0)
(9.47446 0.118665 0)
(9.42887 0.114653 0)
(9.38375 0.111061 0)
(9.33909 0.107825 0)
(9.29487 0.10489 0)
(9.25109 0.102209 0)
(9.20773 0.0997437 0)
(9.16477 0.0974619 0)
(9.1222 0.0953365 0)
(9.08 0.0933456 0)
(9.03816 0.0914712 0)
(8.99667 0.0896989 0)
(8.95551 0.0880172 0)
(8.91467 0.0864173 0)
(8.87414 0.0848922 0)
(8.83391 0.0834368 0)
(8.79396 0.0820475 0)
(8.75429 0.0807215 0)
(8.71489 0.0794573 0)
(8.67574 0.0782537 0)
(8.63684 0.0771105 0)
(8.59817 0.0760276 0)
(8.55972 0.0750054 0)
(8.52147 0.0740446 0)
(8.48342 0.0731461 0)
(8.44555 0.0723109 0)
(8.40784 0.0715402 0)
(8.37028 0.0708354 0)
(8.33285 0.070198 0)
(8.29553 0.0696294 0)
(8.2583 0.0691313 0)
(8.22113 0.0687057 0)
(8.18401 0.0683544 0)
(8.14692 0.0680792 0)
(8.10982 0.0678822 0)
(8.07269 0.0677655 0)
(8.0355 0.067731 0)
(7.99822 0.0677812 0)
(7.96082 0.0679183 0)
(7.92326 0.0681451 0)
(7.88552 0.0684641 0)
(7.84754 0.0688783 0)
(7.80929 0.0693909 0)
(7.77073 0.070005 0)
(7.73181 0.0707242 0)
(7.69249 0.0715522 0)
(7.65272 0.0724929 0)
(7.61244 0.0735505 0)
(7.5716 0.0747295 0)
(7.53014 0.0760345 0)
(7.48799 0.0774704 0)
(7.4451 0.0790424 0)
(7.4014 0.0807558 0)
(7.35681 0.0826163 0)
(7.31125 0.0846298 0)
(7.26465 0.0868024 0)
(7.21691 0.0891402 0)
(7.16796 0.0916499 0)
(7.1177 0.0943379 0)
(7.06602 0.097211 0)
(7.01281 0.100276 0)
(6.95798 0.10354 0)
(6.9014 0.107009 0)
(6.84295 0.110689 0)
(6.7825 0.114588 0)
(6.7199 0.118709 0)
(6.65502 0.123057 0)
(6.58771 0.127635 0)
(6.51781 0.132447 0)
(6.44515 0.137492 0)
(6.36955 0.142772 0)
(6.29084 0.148282 0)
(6.20882 0.154019 0)
(6.12331 0.159975 0)
(6.03408 0.166142 0)
(5.94094 0.172505 0)
(5.84365 0.179047 0)
(5.74201 0.185748 0)
(5.63577 0.192579 0)
(5.5247 0.199509 0)
(5.40858 0.206497 0)
(5.28717 0.213497 0)
(5.16023 0.220453 0)
(5.02755 0.227301 0)
(4.88892 0.233966 0)
(4.74414 0.240364 0)
(4.59305 0.246396 0)
(4.4355 0.251953 0)
(4.2714 0.256912 0)
(4.1007 0.261137 0)
(3.92341 0.264478 0)
(3.73964 0.266776 0)
(3.54958 0.267861 0)
(3.35352 0.267566 0)
(3.15191 0.265729 0)
(2.94533 0.262204 0)
(2.73456 0.256872 0)
(2.52057 0.249658 0)
(2.30459 0.240545 0)
(2.08808 0.229596 0)
(1.87278 0.216956 0)
(1.66065 0.20286 0)
(1.45387 0.187628 0)
(1.25469 0.171634 0)
(1.06531 0.155287 0)
(0.887625 0.139002 0)
(0.723076 0.123213 0)
(0.572424 0.108483 0)
(0.435473 0.0951874 0)
(0.311854 0.0833666 0)
(0.201247 0.0725734 0)
(0.103295 0.0622289 0)
(0.0179541 0.0520982 0)
(-0.0554502 0.0421602 0)
(-0.117955 0.0326869 0)
(-0.170951 0.0235974 0)
(-0.215118 0.0141982 0)
(-0.250586 0.00405501 0)
(-0.277619 -0.00514484 0)
(10.0002 0.0417812 0)
(10.0198 0.117276 0)
(10.0537 0.178916 0)
(10.0983 0.224503 0)
(10.1468 0.25657 0)
(10.1935 0.280049 0)
(10.2355 0.29931 0)
(10.2732 0.316686 0)
(10.3082 0.33256 0)
(10.3422 0.346429 0)
(10.376 0.357802 0)
(10.4096 0.366544 0)
(10.4428 0.372812 0)
(10.4748 0.376857 0)
(10.5055 0.378879 0)
(10.5345 0.378975 0)
(10.5616 0.377182 0)
(10.5867 0.37353 0)
(10.6096 0.368084 0)
(10.6301 0.36095 0)
(10.6482 0.352276 0)
(10.6636 0.342244 0)
(10.6764 0.331065 0)
(10.6863 0.318975 0)
(10.6935 0.306222 0)
(10.698 0.293061 0)
(10.6999 0.279738 0)
(10.6993 0.266484 0)
(10.6964 0.253504 0)
(10.6914 0.240973 0)
(10.6846 0.229031 0)
(10.6761 0.21778 0)
(10.6661 0.207292 0)
(10.6549 0.197603 0)
(10.6427 0.188729 0)
(10.6295 0.180658 0)
(10.6156 0.173367 0)
(10.6011 0.166808 0)
(10.586 0.160922 0)
(10.5705 0.155646 0)
(10.5546 0.15092 0)
(10.5383 0.146683 0)
(10.5217 0.142882 0)
(10.5047 0.139461 0)
(10.4876 0.136374 0)
(10.4701 0.133576 0)
(10.4524 0.131029 0)
(10.4344 0.128699 0)
(10.4162 0.126555 0)
(10.3978 0.124574 0)
(10.3791 0.122732 0)
(10.3602 0.121012 0)
(10.341 0.119398 0)
(10.3216 0.117877 0)
(10.302 0.11644 0)
(10.2821 0.115078 0)
(10.2619 0.113785 0)
(10.2416 0.112557 0)
(10.2209 0.11139 0)
(10.2001 0.110282 0)
(10.1789 0.109233 0)
(10.1576 0.10824 0)
(10.136 0.107305 0)
(10.1141 0.106429 0)
(10.0921 0.105612 0)
(10.0697 0.104856 0)
(10.0471 0.104164 0)
(10.0243 0.103536 0)
(10.0012 0.102977 0)
(9.97789 0.102488 0)
(9.95428 0.102072 0)
(9.93041 0.101732 0)
(9.90625 0.101473 0)
(9.88181 0.101297 0)
(9.85707 0.101207 0)
(9.83202 0.101209 0)
(9.80665 0.101306 0)
(9.78094 0.101501 0)
(9.75488 0.1018 0)
(9.72845 0.102207 0)
(9.70162 0.102725 0)
(9.67438 0.103362 0)
(9.64671 0.104121 0)
(9.61857 0.105008 0)
(9.58994 0.106029 0)
(9.5608 0.10719 0)
(9.53109 0.108497 0)
(9.50081 0.109958 0)
(9.46989 0.11158 0)
(9.43831 0.113369 0)
(9.40602 0.115334 0)
(9.37297 0.117483 0)
(9.33911 0.119826 0)
(9.30439 0.122371 0)
(9.26876 0.125127 0)
(9.23214 0.128106 0)
(9.19447 0.131316 0)
(9.15569 0.134771 0)
(9.11571 0.138479 0)
(9.07446 0.142455 0)
(9.03185 0.146709 0)
(8.98779 0.151253 0)
(8.94218 0.156102 0)
(8.89491 0.161268 0)
(8.84588 0.166764 0)
(8.79496 0.172602 0)
(8.74203 0.178798 0)
(8.68696 0.185363 0)
(8.62959 0.192311 0)
(8.56977 0.199654 0)
(8.50735 0.207403 0)
(8.44214 0.215569 0)
(8.37396 0.22416 0)
(8.30261 0.233183 0)
(8.22789 0.242644 0)
(8.14957 0.252545 0)
(8.06741 0.262886 0)
(7.98117 0.273663 0)
(7.89058 0.284866 0)
(7.79536 0.296484 0)
(7.69521 0.308496 0)
(7.58982 0.320875 0)
(7.47888 0.333587 0)
(7.36203 0.346589 0)
(7.23892 0.359825 0)
(7.10919 0.37323 0)
(6.97244 0.386724 0)
(6.8283 0.400212 0)
(6.67636 0.413582 0)
(6.51623 0.426705 0)
(6.34751 0.439432 0)
(6.1698 0.45159 0)
(5.98275 0.462985 0)
(5.78602 0.473396 0)
(5.57931 0.482575 0)
(5.36239 0.490246 0)
(5.13507 0.496113 0)
(4.89731 0.499861 0)
(4.64916 0.501161 0)
(4.39086 0.499674 0)
(4.12284 0.495058 0)
(3.8458 0.486984 0)
(3.56075 0.47515 0)
(3.26905 0.459329 0)
(2.97254 0.439402 0)
(2.67353 0.415409 0)
(2.37496 0.387615 0)
(2.08033 0.356555 0)
(1.79368 0.323047 0)
(1.51934 0.288252 0)
(1.26167 0.253511 0)
(1.02463 0.220184 0)
(0.810982 0.18929 0)
(0.622028 0.161838 0)
(0.456382 0.138236 0)
(0.311622 0.117835 0)
(0.185307 0.0986127 0)
(0.0762668 0.078645 0)
(-0.0167815 0.057315 0)
(-0.0951449 0.0368688 0)
(10.0001 0.0316627 0)
(10.0128 0.0917414 0)
(10.036 0.145038 0)
(10.0682 0.188699 0)
(10.1059 0.222283 0)
(10.1451 0.24772 0)
(10.1829 0.267815 0)
(10.2183 0.28487 0)
(10.2517 0.299983 0)
(10.2843 0.313285 0)
(10.3168 0.32452 0)
(10.3498 0.333476 0)
(10.383 0.340137 0)
(10.4162 0.344639 0)
(10.449 0.347161 0)
(10.4811 0.347851 0)
(10.5124 0.346814 0)
(10.5427 0.344126 0)
(10.5719 0.339867 0)
(10.5998 0.334136 0)
(10.6264 0.327061 0)
(10.6514 0.318796 0)
(10.6746 0.30952 0)
(10.6961 0.299429 0)
(10.7157 0.28873 0)
(10.7334 0.277633 0)
(10.7492 0.266345 0)
(10.7632 0.25506 0)
(10.7754 0.243954 0)
(10.7859 0.233176 0)
(10.7948 0.222854 0)
(10.8024 0.213082 0)
(10.8087 0.203931 0)
(10.8139 0.195443 0)
(10.8182 0.187641 0)
(10.8216 0.180524 0)
(10.8242 0.174074 0)
(10.8263 0.168256 0)
(10.8278 0.163025 0)
(10.8288 0.158331 0)
(10.8295 0.154127 0)
(10.8297 0.150367 0)
(10.8295 0.147008 0)
(10.8291 0.144008 0)
(10.8283 0.141327 0)
(10.8273 0.138926 0)
(10.8259 0.136771 0)
(10.8243 0.134831 0)
(10.8224 0.133076 0)
(10.8202 0.131483 0)
(10.8178 0.130029 0)
(10.8151 0.128698 0)
(10.8121 0.127473 0)
(10.8087 0.126342 0)
(10.8051 0.125294 0)
(10.8012 0.124321 0)
(10.797 0.123418 0)
(10.7925 0.122578 0)
(10.7876 0.121799 0)
(10.7825 0.121078 0)
(10.777 0.120414 0)
(10.7712 0.119807 0)
(10.7651 0.119257 0)
(10.7586 0.118765 0)
(10.7518 0.118333 0)
(10.7447 0.117962 0)
(10.7372 0.117655 0)
(10.7294 0.117414 0)
(10.7212 0.117244 0)
(10.7127 0.117146 0)
(10.7038 0.117125 0)
(10.6946 0.117185 0)
(10.685 0.117329 0)
(10.675 0.117562 0)
(10.6647 0.11789 0)
(10.654 0.118315 0)
(10.6428 0.118845 0)
(10.6313 0.119483 0)
(10.6193 0.120237 0)
(10.6069 0.121111 0)
(10.5941 0.122112 0)
(10.5808 0.123246 0)
(10.567 0.124521 0)
(10.5527 0.125944 0)
(10.5379 0.127523 0)
(10.5226 0.129265 0)
(10.5067 0.13118 0)
(10.4903 0.133276 0)
(10.4732 0.135563 0)
(10.4555 0.138051 0)
(10.4372 0.140752 0)
(10.4181 0.143675 0)
(10.3983 0.146834 0)
(10.3777 0.15024 0)
(10.3563 0.153906 0)
(10.334 0.157846 0)
(10.3108 0.162075 0)
(10.2867 0.166608 0)
(10.2615 0.17146 0)
(10.2352 0.176648 0)
(10.2078 0.182189 0)
(10.1792 0.188101 0)
(10.1492 0.194402 0)
(10.1179 0.201112 0)
(10.0852 0.208249 0)
(10.0508 0.215835 0)
(10.0148 0.223889 0)
(9.97708 0.232433 0)
(9.93744 0.241489 0)
(9.89578 0.251078 0)
(9.85198 0.261221 0)
(9.80589 0.271938 0)
(9.75735 0.283252 0)
(9.7062 0.295181 0)
(9.65225 0.307745 0)
(9.59531 0.320959 0)
(9.53517 0.334838 0)
(9.4716 0.349396 0)
(9.40436 0.36464 0)
(9.3332 0.380575 0)
(9.25782 0.397202 0)
(9.17793 0.414513 0)
(9.0932 0.432497 0)
(9.00329 0.451132 0)
(8.90783 0.470386 0)
(8.8064 0.490219 0)
(8.6986 0.510575 0)
(8.58396 0.531385 0)
(8.462 0.552562 0)
(8.33221 0.574001 0)
(8.19405 0.595575 0)
(8.04694 0.617134 0)
(7.89029 0.6385 0)
(7.72348 0.659467 0)
(7.54586 0.679791 0)
(7.35678 0.699192 0)
(7.15557 0.717355 0)
(6.94159 0.733929 0)
(6.7142 0.748524 0)
(6.47282 0.760715 0)
(6.21693 0.770042 0)
(5.94612 0.776013 0)
(5.66015 0.778105 0)
(5.35896 0.775763 0)
(5.04274 0.768417 0)
(4.71201 0.755514 0)
(4.36773 0.736522 0)
(4.01135 0.710985 0)
(3.64496 0.678559 0)
(3.27141 0.639149 0)
(2.89444 0.59298 0)
(2.51898 0.540765 0)
(2.15115 0.483811 0)
(1.79834 0.424131 0)
(1.46829 0.364436 0)
(1.16818 0.307793 0)
(0.90304 0.256535 0)
(0.674866 0.211793 0)
(0.480468 0.173173 0)
(0.313784 0.139099 0)
(10.0001 0.0253327 0)
(10.0092 0.0742933 0)
(10.0261 0.11944 0)
(10.0502 0.158589 0)
(10.0797 0.190697 0)
(10.1121 0.216193 0)
(10.1451 0.236532 0)
(10.1773 0.253356 0)
(10.2083 0.267848 0)
(10.2386 0.280504 0)
(10.2688 0.291334 0)
(10.2993 0.30019 0)
(10.3301 0.306985 0)
(10.3611 0.311759 0)
(10.3921 0.314641 0)
(10.4226 0.315784 0)
(10.4527 0.315323 0)
(10.482 0.313366 0)
(10.5106 0.310007 0)
(10.5382 0.305343 0)
(10.5649 0.299487 0)
(10.5905 0.292573 0)
(10.6148 0.284753 0)
(10.6378 0.276193 0)
(10.6594 0.267069 0)
(10.6795 0.257562 0)
(10.6982 0.247846 0)
(10.7155 0.238089 0)
(10.7314 0.228441 0)
(10.746 0.219036 0)
(10.7594 0.209986 0)
(10.7716 0.201379 0)
(10.7829 0.193281 0)
(10.7933 0.185736 0)
(10.8029 0.178768 0)
(10.8119 0.172382 0)
(10.8202 0.166568 0)
(10.8281 0.161301 0)
(10.8356 0.156552 0)
(10.8426 0.152282 0)
(10.8494 0.148456 0)
(10.8559 0.145038 0)
(10.8621 0.141992 0)
(10.8682 0.139282 0)
(10.874 0.136875 0)
(10.8796 0.134738 0)
(10.8851 0.132838 0)
(10.8904 0.131148 0)
(10.8955 0.129642 0)
(10.9005 0.128296 0)
(10.9053 0.127091 0)
(10.9099 0.126011 0)
(10.9143 0.12504 0)
(10.9185 0.124167 0)
(10.9226 0.123381 0)
(10.9264 0.122675 0)
(10.9301 0.122043 0)
(10.9335 0.121479 0)
(10.9367 0.120981 0)
(10.9397 0.120546 0)
(10.9425 0.120173 0)
(10.945 0.119861 0)
(10.9473 0.119612 0)
(10.9493 0.119425 0)
(10.9511 0.119302 0)
(10.9527 0.119247 0)
(10.9539 0.11926 0)
(10.955 0.119346 0)
(10.9557 0.119506 0)
(10.9562 0.119746 0)
(10.9564 0.120069 0)
(10.9563 0.12048 0)
(10.9559 0.120982 0)
(10.9552 0.12158 0)
(10.9542 0.12228 0)
(10.9529 0.123088 0)
(10.9513 0.124008 0)
(10.9494 0.125046 0)
(10.9471 0.126211 0)
(10.9445 0.127507 0)
(10.9415 0.128943 0)
(10.9382 0.130526 0)
(10.9344 0.132263 0)
(10.9303 0.134165 0)
(10.9258 0.136239 0)
(10.9208 0.138495 0)
(10.9155 0.140943 0)
(10.9096 0.143594 0)
(10.9033 0.14646 0)
(10.8965 0.149551 0)
(10.8892 0.152881 0)
(10.8813 0.156463 0)
(10.8729 0.160311 0)
(10.8639 0.16444 0)
(10.8542 0.168866 0)
(10.8439 0.173605 0)
(10.8329 0.178673 0)
(10.8212 0.184091 0)
(10.8088 0.189876 0)
(10.7955 0.196049 0)
(10.7814 0.202632 0)
(10.7663 0.209645 0)
(10.7503 0.217112 0)
(10.7334 0.225058 0)
(10.7153 0.233507 0)
(10.6961 0.242485 0)
(10.6757 0.252019 0)
(10.654 0.262138 0)
(10.631 0.272869 0)
(10.6065 0.284243 0)
(10.5804 0.296289 0)
(10.5527 0.309038 0)
(10.5232 0.32252 0)
(10.4917 0.336766 0)
(10.4583 0.351808 0)
(10.4227 0.367674 0)
(10.3847 0.384393 0)
(10.3442 0.401994 0)
(10.301 0.4205 0)
(10.2549 0.439935 0)
(10.2057 0.460319 0)
(10.1531 0.481665 0)
(10.0968 0.503984 0)
(10.0366 0.527278 0)
(9.97218 0.551543 0)
(9.90313 0.576766 0)
(9.82911 0.60292 0)
(9.74969 0.629968 0)
(9.66444 0.657857 0)
(9.57285 0.686516 0)
(9.47441 0.715854 0)
(9.36852 0.745757 0)
(9.25456 0.776085 0)
(9.13186 0.80667 0)
(8.99967 0.837315 0)
(8.85721 0.867786 0)
(8.70365 0.897815 0)
(8.5381 0.927088 0)
(8.35961 0.955257 0)
(8.16722 0.981918 0)
(7.95992 1.00663 0)
(7.73669 1.02888 0)
(7.49651 1.04813 0)
(7.23838 1.06374 0)
(6.96138 1.07503 0)
(6.66469 1.08123 0)
(6.34765 1.08156 0)
(6.00984 1.07518 0)
(5.65121 1.06127 0)
(5.2721 1.039 0)
(4.87347 1.00764 0)
(4.45705 0.966548 0)
(4.02552 0.915267 0)
(3.58275 0.853603 0)
(3.13398 0.781873 0)
(2.68615 0.701195 0)
(2.24815 0.613789 0)
(1.83115 0.52313 0)
(1.44716 0.433984 0)
(1.10617 0.351786 0)
(10.0001 0.020837 0)
(10.007 0.0615062 0)
(10.02 0.0997295 0)
(10.0387 0.134104 0)
(10.0623 0.163618 0)
(10.0892 0.188088 0)
(10.1177 0.208101 0)
(10.1466 0.224643 0)
(10.1751 0.238663 0)
(10.2033 0.250752 0)
(10.2314 0.261112 0)
(10.2596 0.269717 0)
(10.2882 0.276494 0)
(10.317 0.281435 0)
(10.3459 0.284616 0)
(10.3745 0.286165 0)
(10.4028 0.286217 0)
(10.4305 0.284893 0)
(10.4575 0.282296 0)
(10.4839 0.278526 0)
(10.5093 0.273686 0)
(10.5339 0.267893 0)
(10.5574 0.261277 0)
(10.5798 0.253981 0)
(10.6011 0.246157 0)
(10.6211 0.237959 0)
(10.64 0.229537 0)
(10.6576 0.221035 0)
(10.6741 0.212586 0)
(10.6895 0.204305 0)
(10.7038 0.196294 0)
(10.7172 0.188634 0)
(10.7298 0.181385 0)
(10.7415 0.174593 0)
(10.7526 0.168282 0)
(10.7631 0.162464 0)
(10.7731 0.157135 0)
(10.7826 0.152283 0)
(10.7918 0.147885 0)
(10.8007 0.143918 0)
(10.8093 0.140352 0)
(10.8177 0.13716 0)
(10.8259 0.134311 0)
(10.8339 0.131776 0)
(10.8417 0.129526 0)
(10.8495 0.127532 0)
(10.8571 0.125766 0)
(10.8646 0.124203 0)
(10.872 0.122821 0)
(10.8793 0.121599 0)
(10.8864 0.120518 0)
(10.8935 0.119564 0)
(10.9005 0.118723 0)
(10.9074 0.117984 0)
(10.9141 0.117337 0)
(10.9207 0.116776 0)
(10.9272 0.116295 0)
(10.9336 0.115887 0)
(10.9399 0.115552 0)
(10.946 0.115285 0)
(10.9519 0.115086 0)
(10.9577 0.114955 0)
(10.9634 0.114892 0)
(10.9689 0.114897 0)
(10.9742 0.114973 0)
(10.9794 0.115121 0)
(10.9844 0.115344 0)
(10.9892 0.115645 0)
(10.9938 0.116027 0)
(10.9983 0.116494 0)
(11.0026 0.117051 0)
(11.0066 0.117701 0)
(11.0105 0.118449 0)
(11.0142 0.119301 0)
(11.0176 0.120261 0)
(11.0209 0.121335 0)
(11.0239 0.122531 0)
(11.0267 0.123853 0)
(11.0293 0.125309 0)
(11.0316 0.126907 0)
(11.0336 0.128654 0)
(11.0355 0.130558 0)
(11.037 0.132629 0)
(11.0383 0.134875 0)
(11.0392 0.137306 0)
(11.0399 0.139933 0)
(11.0403 0.142766 0)
(11.0404 0.145818 0)
(11.0401 0.149101 0)
(11.0395 0.152628 0)
(11.0385 0.156412 0)
(11.0372 0.160468 0)
(11.0354 0.164813 0)
(11.0332 0.169461 0)
(11.0307 0.174431 0)
(11.0276 0.179741 0)
(11.0241 0.18541 0)
(11.0201 0.191459 0)
(11.0156 0.197909 0)
(11.0105 0.204782 0)
(11.0048 0.212102 0)
(10.9986 0.219895 0)
(10.9917 0.228186 0)
(10.9841 0.237003 0)
(10.9758 0.246375 0)
(10.9667 0.256332 0)
(10.9568 0.266905 0)
(10.9461 0.278128 0)
(10.9344 0.290033 0)
(10.9218 0.302656 0)
(10.9082 0.316035 0)
(10.8935 0.330205 0)
(10.8776 0.345205 0)
(10.8604 0.361075 0)
(10.8419 0.377854 0)
(10.822 0.395583 0)
(10.8005 0.414301 0)
(10.7773 0.434048 0)
(10.7524 0.454863 0)
(10.7255 0.476785 0)
(10.6966 0.499848 0)
(10.6654 0.524088 0)
(10.6317 0.549533 0)
(10.5954 0.57621 0)
(10.5563 0.604139 0)
(10.5139 0.633333 0)
(10.4682 0.663799 0)
(10.4187 0.695531 0)
(10.3651 0.728513 0)
(10.3071 0.762714 0)
(10.2441 0.798088 0)
(10.1757 0.834567 0)
(10.1014 0.872066 0)
(10.0206 0.91047 0)
(9.93255 0.949643 0)
(9.83661 0.989414 0)
(9.73197 1.02958 0)
(9.61774 1.0699 0)
(9.49298 1.11007 0)
(9.35665 1.14977 0)
(9.20761 1.18861 0)
(9.04467 1.22613 0)
(8.86653 1.26182 0)
(8.67182 1.2951 0)
(8.45912 1.32532 0)
(8.22696 1.35174 0)
(7.97387 1.37355 0)
(7.69838 1.38989 0)
(7.39909 1.39977 0)
(7.07475 1.40218 0)
(6.72429 1.39599 0)
(6.34702 1.38004 0)
(5.9427 1.35313 0)
(5.51179 1.31412 0)
(5.05552 1.26193 0)
(4.57635 1.19579 0)
(4.07818 1.11529 0)
(3.56678 1.0206 0)
(3.0501 0.912734 0)
(2.53873 0.79435 0)
(10.0001 0.0174419 0)
(10.0056 0.051677 0)
(10.016 0.0842465 0)
(10.0311 0.11422 0)
(10.0503 0.140791 0)
(10.0729 0.163586 0)
(10.0976 0.182741 0)
(10.1233 0.198762 0)
(10.1494 0.212285 0)
(10.1755 0.223832 0)
(10.2017 0.23369 0)
(10.2281 0.241936 0)
(10.2547 0.248551 0)
(10.2816 0.253526 0)
(10.3085 0.2569 0)
(10.3354 0.258766 0)
(10.3621 0.259244 0)
(10.3883 0.258449 0)
(10.4139 0.25649 0)
(10.4389 0.253466 0)
(10.4632 0.249474 0)
(10.4867 0.244619 0)
(10.5093 0.239015 0)
(10.5309 0.232787 0)
(10.5516 0.226064 0)
(10.5712 0.21898 0)
(10.5897 0.211664 0)
(10.6072 0.204242 0)
(10.6236 0.196828 0)
(10.6391 0.189525 0)
(10.6537 0.182422 0)
(10.6673 0.175593 0)
(10.6803 0.169096 0)
(10.6924 0.162972 0)
(10.704 0.157249 0)
(10.715 0.151942 0)
(10.7255 0.147054 0)
(10.7356 0.142579 0)
(10.7454 0.138504 0)
(10.7548 0.134813 0)
(10.764 0.131483 0)
(10.7729 0.128493 0)
(10.7816 0.125817 0)
(10.7902 0.123431 0)
(10.7986 0.121309 0)
(10.8069 0.119428 0)
(10.8151 0.117763 0)
(10.8232 0.116294 0)
(10.8312 0.114999 0)
(10.8391 0.113861 0)
(10.847 0.112864 0)
(10.8547 0.111993 0)
(10.8624 0.111237 0)
(10.87 0.110586 0)
(10.8774 0.11003 0)
(10.8848 0.109564 0)
(10.8922 0.10918 0)
(10.8994 0.108876 0)
(10.9065 0.108647 0)
(10.9135 0.108491 0)
(10.9204 0.108408 0)
(10.9272 0.108397 0)
(10.9339 0.108458 0)
(10.9405 0.108591 0)
(10.947 0.1088 0)
(10.9533 0.109084 0)
(10.9596 0.109449 0)
(10.9657 0.109895 0)
(10.9717 0.110427 0)
(10.9775 0.111048 0)
(10.9832 0.111762 0)
(10.9888 0.112575 0)
(10.9942 0.113491 0)
(10.9995 0.114514 0)
(11.0046 0.115652 0)
(11.0096 0.116909 0)
(11.0144 0.118292 0)
(11.0191 0.119808 0)
(11.0235 0.121465 0)
(11.0279 0.123269 0)
(11.032 0.125229 0)
(11.0359 0.127355 0)
(11.0397 0.129654 0)
(11.0432 0.132137 0)
(11.0466 0.134814 0)
(11.0497 0.137696 0)
(11.0527 0.140795 0)
(11.0554 0.144123 0)
(11.0578 0.147693 0)
(11.06 0.151518 0)
(11.062 0.155614 0)
(11.0637 0.159996 0)
(11.0651 0.16468 0)
(11.0662 0.169684 0)
(11.0671 0.175026 0)
(11.0676 0.180725 0)
(11.0678 0.186802 0)
(11.0676 0.193278 0)
(11.0671 0.200177 0)
(11.0663 0.207522 0)
(11.065 0.215339 0)
(11.0633 0.223655 0)
(11.0612 0.232496 0)
(11.0586 0.241895 0)
(11.0556 0.25188 0)
(11.0521 0.262485 0)
(11.048 0.273744 0)
(11.0434 0.285692 0)
(11.0382 0.298367 0)
(11.0323 0.311808 0)
(11.0258 0.326054 0)
(11.0186 0.341149 0)
(11.0107 0.357134 0)
(11.002 0.374055 0)
(10.9924 0.391957 0)
(10.9819 0.410888 0)
(10.9705 0.430894 0)
(10.958 0.452025 0)
(10.9445 0.474329 0)
(10.9297 0.497856 0)
(10.9137 0.522652 0)
(10.8963 0.548767 0)
(10.8773 0.576244 0)
(10.8568 0.605129 0)
(10.8344 0.63546 0)
(10.8101 0.667276 0)
(10.7837 0.700604 0)
(10.7549 0.735471 0)
(10.7235 0.771891 0)
(10.6893 0.809872 0)
(10.6519 0.849405 0)
(10.611 0.890473 0)
(10.5662 0.933038 0)
(10.517 0.977047 0)
(10.4631 1.02242 0)
(10.4037 1.06906 0)
(10.3382 1.11684 0)
(10.266 1.16559 0)
(10.1862 1.21511 0)
(10.0979 1.26515 0)
(10.0002 1.31541 0)
(9.89185 1.36554 0)
(9.7717 1.41514 0)
(9.63835 1.4637 0)
(9.49037 1.51069 0)
(9.3261 1.55544 0)
(9.14388 1.59724 0)
(8.94182 1.63522 0)
(8.71805 1.66849 0)
(8.47051 1.69597 0)
(8.19724 1.71654 0)
(7.89621 1.72891 0)
(7.56558 1.73175 0)
(7.20364 1.72355 0)
(6.80907 1.70282 0)
(6.38101 1.6679 0)
(5.91945 1.61732 0)
(5.42536 1.54958 0)
(4.90102 1.46361 0)
(4.3507 1.35891 0)
(10 0.0147645 0)
(10.0046 0.0438386 0)
(10.0132 0.071749 0)
(10.0257 0.0978091 0)
(10.0419 0.121428 0)
(10.0611 0.142215 0)
(10.0826 0.160097 0)
(10.1056 0.175288 0)
(10.1293 0.188167 0)
(10.1535 0.199121 0)
(10.1779 0.208432 0)
(10.2025 0.216235 0)
(10.2274 0.22257 0)
(10.2526 0.227445 0)
(10.278 0.230886 0)
(10.3033 0.23296 0)
(10.3285 0.233761 0)
(10.3533 0.233392 0)
(10.3778 0.231957 0)
(10.4016 0.229554 0)
(10.4249 0.226275 0)
(10.4474 0.222216 0)
(10.4692 0.217479 0)
(10.4901 0.212172 0)
(10.5102 0.206406 0)
(10.5293 0.200297 0)
(10.5475 0.193956 0)
(10.5648 0.187492 0)
(10.5811 0.181005 0)
(10.5966 0.174586 0)
(10.6112 0.168312 0)
(10.6251 0.16225 0)
(10.6382 0.156453 0)
(10.6506 0.150962 0)
(10.6624 0.145804 0)
(10.6737 0.140996 0)
(10.6846 0.136547 0)
(10.695 0.132455 0)
(10.705 0.128715 0)
(10.7147 0.125313 0)
(10.7241 0.122235 0)
(10.7333 0.119462 0)
(10.7423 0.116973 0)
(10.7511 0.11475 0)
(10.7598 0.11277 0)
(10.7683 0.111014 0)
(10.7767 0.109461 0)
(10.7849 0.108092 0)
(10.7931 0.106891 0)
(10.8012 0.105841 0)
(10.8092 0.104928 0)
(10.8171 0.104139 0)
(10.8249 0.103465 0)
(10.8326 0.102895 0)
(10.8403 0.102422 0)
(10.8479 0.102039 0)
(10.8554 0.101742 0)
(10.8628 0.101525 0)
(10.8701 0.101386 0)
(10.8773 0.101323 0)
(10.8845 0.101335 0)
(10.8915 0.101421 0)
(10.8985 0.101582 0)
(10.9054 0.101818 0)
(10.9121 0.102132 0)
(10.9188 0.102525 0)
(10.9254 0.102999 0)
(10.9318 0.103559 0)
(10.9382 0.104207 0)
(10.9444 0.104947 0)
(10.9505 0.105783 0)
(10.9566 0.10672 0)
(10.9625 0.107764 0)
(10.9683 0.108918 0)
(10.9739 0.11019 0)
(10.9794 0.111585 0)
(10.9849 0.113111 0)
(10.9901 0.114773 0)
(10.9953 0.116579 0)
(11.0003 0.118539 0)
(11.0051 0.120659 0)
(11.0098 0.122949 0)
(11.0144 0.125418 0)
(11.0188 0.128077 0)
(11.023 0.130936 0)
(11.0271 0.134007 0)
(11.031 0.1373 0)
(11.0347 0.14083 0)