/*--------------------------------*- C++ -*----------------------------------*\
| =========                 |                                                 |
| \\      /  F ield         | OpenFOAM: The Open Source CFD Toolbox           |
|  \\    /   O peration     | Version:  2306                                  |
|   \\  /    A nd           | Website:  www.openfoam.com                      |
|    \\/     M anipulation  |                                                 |
\*---------------------------------------------------------------------------*/
FoamFile
{
    version     2.0;
    format      ascii;
    arch        "LSB;label=32;scalar=64";
    class       volScalarField;
    location    "0.5";
    object      p;
}
// * * * * * * * * * * * * * * * * * * * * * * * * * * * * * * * * * * * * * //

dimensions      [0 2 -2 0 0 0 0];

internalField   nonuniform List<scalar> 
17600
(
368.515
366.472
364.694
363.464
362.701
362.194
361.776
361.369
360.952
360.528
360.108
359.696
359.292
358.895
358.503
358.117
357.736
357.363
357.002
356.656
356.327
356.02
355.736
355.477
355.244
355.036
354.854
354.695
354.557
354.438
354.336
354.246
354.167
354.096
354.031
353.97
353.912
353.854
353.797
353.739
353.68
353.619
353.557
353.493
353.428
353.361
353.292
353.223
353.152
353.081
353.009
352.937
352.865
352.792
352.72
352.648
352.576
352.505
352.435
352.365
352.296
352.228
352.161
352.095
352.03
351.966
351.903
351.842
351.782
351.723
351.665
351.609
351.555
351.502
351.45
351.4
351.352
351.305
351.261
351.218
351.177
351.138
351.101
351.066
351.033
351.003
350.975
350.949
350.926
350.906
350.888
350.874
350.862
350.853
350.848
350.846
350.847
350.852
350.861
350.873
350.89
350.911
350.936
350.965
350.999
351.037
351.081
351.129
351.182
351.241
351.305
351.374
351.448
351.528
351.614
351.705
351.801
351.904
352.011
352.124
352.242
352.365
352.492
352.624
352.761
352.901
353.044
353.191
353.339
353.49
353.642
353.794
353.946
354.097
354.246
354.393
354.537
354.678
354.815
354.947
355.074
355.195
355.311
355.42
355.523
355.619
355.708
355.791
355.868
355.939
356.004
356.063
356.117
356.166
356.211
356.252
356.288
356.322
356.353
356.381
365.786
365.016
364.09
363.226
362.535
362.013
361.593
361.21
360.83
360.442
360.047
359.653
359.263
358.879
358.5
358.126
357.758
357.398
357.049
356.714
356.396
356.097
355.818
355.563
355.331
355.124
354.939
354.777
354.636
354.512
354.404
354.309
354.225
354.149
354.079
354.013
353.95
353.888
353.827
353.766
353.704
353.641
353.577
353.511
353.444
353.376
353.306
353.236
353.165
353.093
353.02
352.948
352.875
352.802
352.729
352.657
352.585
352.514
352.443
352.373
352.304
352.235
352.168
352.102
352.037
351.973
351.91
351.848
351.788
351.729
351.672
351.615
351.561
351.507
351.456
351.406
351.358
351.311
351.266
351.223
351.182
351.143
351.106
351.071
351.039
351.008
350.98
350.955
350.932
350.911
350.894
350.879
350.868
350.859
350.854
350.852
350.853
350.858
350.867
350.88
350.897
350.918
350.943
350.973
351.007
351.046
351.09
351.138
351.192
351.251
351.316
351.385
351.46
351.541
351.627
351.719
351.816
351.919
352.028
352.141
352.26
352.384
352.513
352.646
352.783
352.924
353.069
353.216
353.365
353.516
353.668
353.821
353.972
354.123
354.272
354.418
354.561
354.701
354.836
354.967
355.093
355.213
355.328
355.436
355.538
355.633
355.721
355.803
355.878
355.948
356.012
356.07
356.123
356.171
356.214
356.254
356.29
356.323
356.353
356.38
364.482
364.133
363.603
362.991
362.399
361.885
361.452
361.072
360.711
360.35
359.982
359.61
359.239
358.871
358.508
358.152
357.803
357.463
357.133
356.815
356.511
356.224
355.955
355.706
355.477
355.269
355.081
354.914
354.764
354.632
354.514
354.408
354.313
354.227
354.147
354.072
354.001
353.932
353.864
353.796
353.729
353.662
353.594
353.525
353.456
353.385
353.314
353.243
353.171
353.098
353.025
352.952
352.879
352.806
352.733
352.66
352.588
352.517
352.446
352.376
352.307
352.238
352.171
352.104
352.039
351.975
351.912
351.85
351.789
351.73
351.672
351.616
351.561
351.507
351.455
351.405
351.356
351.309
351.264
351.221
351.179
351.14
351.102
351.067
351.034
351.003
350.974
350.948
350.924
350.904
350.885
350.87
350.858
350.849
350.843
350.84
350.841
350.845
350.853
350.865
350.881
350.901
350.925
350.954
350.987
351.025
351.068
351.116
351.169
351.227
351.29
351.359
351.433
351.513
351.599
351.69
351.787
351.889
351.997
352.11
352.229
352.353
352.482
352.616
352.754
352.896
353.041
353.19
353.341
353.494
353.649
353.804
353.959
354.113
354.265
354.415
354.562
354.705
354.844
354.977
355.105
355.227
355.341
355.449
355.55
355.644
355.732
355.813
355.888
355.958
356.022
356.08
356.132
356.179
356.222
356.261
356.296
356.327
356.356
356.383
363.578
363.386
363.054
362.618
362.143
361.687
361.276
360.908
360.565
360.228
359.888
359.543
359.195
358.849
358.506
358.17
357.841
357.52
357.208
356.907
356.619
356.344
356.086
355.844
355.62
355.414
355.225
355.054
354.9
354.76
354.634
354.52
354.415
354.319
354.23
354.147
354.067
353.99
353.914
353.841
353.768
353.695
353.623
353.551
353.478
353.405
353.332
353.258
353.184
353.11
353.036
352.962
352.888
352.814
352.741
352.667
352.595
352.523
352.451
352.381
352.311
352.242
352.174
352.107
352.041
351.977
351.913
351.851
351.789
351.73
351.671
351.614
351.558
351.504
351.451
351.4
351.351
351.303
351.257
351.213
351.17
351.13
351.091
351.055
351.021
350.989
350.959
350.932
350.907
350.885
350.865
350.848
350.834
350.824
350.816
350.812
350.811
350.813
350.819
350.829
350.843
350.861
350.883
350.909
350.94
350.975
351.016
351.061
351.111
351.166
351.227
351.292
351.364
351.441
351.523
351.611
351.705
351.805
351.91
352.021
352.137
352.258
352.385
352.517
352.654
352.795
352.94
353.088
353.24
353.394
353.551
353.708
353.867
354.025
354.182
354.338
354.491
354.641
354.787
354.928
355.065
355.195
355.318
355.435
355.544
355.645
355.738
355.823
355.9
355.969
356.031
356.087
356.139
356.185
356.229
356.268
356.303
356.335
356.362
356.388
362.892
362.767
362.539
362.222
361.851
361.466
361.095
360.75
360.425
360.109
359.793
359.473
359.149
358.824
358.502
358.185
357.874
357.57
357.275
356.99
356.715
356.452
356.203
355.969
355.749
355.546
355.358
355.185
355.027
354.882
354.749
354.627
354.515
354.411
354.314
354.222
354.134
354.05
353.968
353.888
353.81
353.733
353.656
353.58
353.504
353.428
353.352
353.276
353.201
353.125
353.049
352.974
352.899
352.824
352.749
352.675
352.602
352.529
352.457
352.386
352.315
352.246
352.177
352.11
352.043
351.978
351.913
351.85
351.788
351.728
351.668
351.61
351.554
351.499
351.445
351.393
351.342
351.293
351.246
351.2
351.157
351.115
351.075
351.037
351.001
350.967
350.936
350.907
350.88
350.856
350.834
350.815
350.799
350.786
350.776
350.768
350.765
350.764
350.767
350.774
350.784
350.798
350.817
350.839
350.866
350.897
350.933
350.973
351.019
351.069
351.124
351.185
351.251
351.322
351.398
351.481
351.568
351.662
351.761
351.865
351.976
352.091
352.212
352.338
352.469
352.605
352.745
352.889
353.037
353.188
353.342
353.499
353.656
353.815
353.974
354.133
354.291
354.448
354.602
354.753
354.9
355.043
355.181
355.313
355.437
355.554
355.664
355.765
355.857
355.941
356.017
356.084
356.143
356.193
356.236
356.272
356.306
356.336
356.365
356.392
362.345
362.255
362.088
361.85
361.559
361.239
360.913
360.597
360.292
359.996
359.7
359.402
359.101
358.797
358.494
358.195
357.9
357.613
357.332
357.06
356.797
356.545
356.305
356.077
355.863
355.662
355.474
355.3
355.139
354.991
354.853
354.725
354.606
354.495
354.391
354.292
354.198
354.107
354.019
353.934
353.851
353.769
353.688
353.608
353.529
353.451
353.372
353.294
353.216
353.139
353.062
352.985
352.909
352.833
352.757
352.683
352.608
352.535
352.462
352.39
352.319
352.249
352.179
352.111
352.044
351.978
351.912
351.848
351.786
351.724
351.664
351.605
351.547
351.491
351.436
351.383
351.331
351.281
351.232
351.185
351.14
351.096
351.054
351.015
350.977
350.941
350.908
350.876
350.847
350.82
350.796
350.774
350.755
350.739
350.725
350.715
350.707
350.703
350.702
350.704
350.71
350.72
350.733
350.751
350.772
350.797
350.827
350.861
350.9
350.944
350.992
351.045
351.103
351.166
351.234
351.308
351.387
351.471
351.56
351.655
351.755
351.861
351.972
352.088
352.209
352.334
352.465
352.599
352.738
352.881
353.027
353.176
353.327
353.481
353.637
353.794
353.952
354.11
354.267
354.424
354.579
354.731
354.881
355.027
355.169
355.305
355.436
355.561
355.679
355.789
355.891
355.983
356.066
356.139
356.202
356.257
356.303
356.34
356.369
356.393
361.896
361.828
361.699
361.514
361.281
361.015
360.732
360.447
360.165
359.887
359.61
359.331
359.049
358.765
358.48
358.198
357.919
357.645
357.378
357.118
356.866
356.624
356.391
356.17
355.96
355.761
355.575
355.401
355.238
355.086
354.945
354.812
354.688
354.571
354.461
354.356
354.256
354.16
354.067
353.977
353.89
353.804
353.719
353.636
353.554
353.472
353.391
353.311
353.232
353.153
353.074
352.996
352.918
352.841
352.765
352.689
352.614
352.54
352.466
352.393
352.322
352.251
352.181
352.111
352.043
351.976
351.91
351.845
351.782
351.719
351.658
351.598
351.539
351.482
351.426
351.371
351.318
351.266
351.216
351.167
351.12
351.075
351.031
350.989
350.95
350.912
350.876
350.842
350.81
350.781
350.753
350.729
350.706
350.686
350.669
350.655
350.643
350.635
350.629
350.627
350.628
350.632
350.64
350.651
350.666
350.685
350.708
350.735
350.766
350.801
350.841
350.885
350.934
350.987
351.045
351.108
351.176
351.249
351.326
351.409
351.496
351.589
351.686
351.788
351.895
352.007
352.123
352.243
352.368
352.497
352.629
352.765
352.904
353.047
353.192
353.339
353.489
353.641
353.794
353.948
354.103
354.258
354.413
354.567
354.721
354.873
355.022
355.168
355.311
355.449
355.581
355.707
355.826
355.936
356.037
356.127
356.206
356.273
356.329
356.376
361.521
361.467
361.364
361.215
361.023
360.8
360.555
360.299
360.04
359.781
359.522
359.261
358.997
358.73
358.462
358.195
357.93
357.669
357.414
357.165
356.923
356.689
356.464
356.248
356.043
355.848
355.663
355.489
355.325
355.171
355.026
354.89
354.761
354.64
354.525
354.415
354.31
354.209
354.112
354.018
353.926
353.836
353.749
353.662
353.577
353.493
353.41
353.328
353.246
353.165
353.085
353.006
352.927
352.849
352.772
352.695
352.619
352.544
352.469
352.396
352.323
352.251
352.181
352.111
352.042
351.974
351.907
351.841
351.777
351.713
351.651
351.59
351.53
351.471
351.413
351.357
351.303
351.25
351.198
351.147
351.099
351.051
351.006
350.962
350.92
350.88
350.841
350.805
350.77
350.738
350.708
350.68
350.654
350.63
350.609
350.591
350.575
350.562
350.551
350.544
350.539
350.538
350.54
350.545
350.553
350.565
350.58
350.599
350.622
350.649
350.679
350.714
350.753
350.795
350.842
350.894
350.949
351.009
351.073
351.142
351.215
351.293
351.374
351.461
351.551
351.646
351.745
351.848
351.954
352.065
352.18
352.298
352.419
352.544
352.672
352.804
352.938
353.075
353.216
353.359
353.504
353.652
353.803
353.956
354.111
354.268
354.426
354.586
354.746
354.905
355.064
355.221
355.374
355.524
355.667
355.803
355.93
356.047
356.151
356.242
361.205
361.16
361.075
360.951
360.79
360.599
360.386
360.157
359.921
359.681
359.438
359.192
358.944
358.693
358.44
358.187
357.936
357.687
357.443
357.204
356.971
356.745
356.526
356.316
356.114
355.922
355.739
355.565
355.401
355.245
355.098
354.959
354.827
354.702
354.582
354.469
354.36
354.255
354.154
354.055
353.96
353.867
353.776
353.687
353.599
353.513
353.427
353.343
353.26
353.177
353.096
353.015
352.935
352.856
352.778
352.7
352.623
352.547
352.472
352.397
352.324
352.251
352.18
352.109
352.039
351.97
351.903
351.836
351.77
351.706
351.642
351.58
351.519
351.459
351.4
351.343
351.287
351.232
351.178
351.126
351.076
351.027
350.979
350.933
350.889
350.846
350.805
350.766
350.729
350.693
350.66
350.628
350.599
350.572
350.547
350.524
350.504
350.486
350.471
350.458
350.448
350.441
350.436
350.435
350.436
350.441
350.448
350.459
350.473
350.491
350.512
350.536
350.565
350.596
350.632
350.671
350.713
350.76
350.81
350.864
350.922
350.983
351.049
351.118
351.19
351.267
351.347
351.43
351.517
351.607
351.701
351.798
351.898
352.002
352.109
352.219
352.333
352.45
352.57
352.695
352.823
352.955
353.092
353.233
353.379
353.529
353.684
353.844
354.009
354.179
354.352
354.529
354.709
354.89
355.071
355.25
355.426
355.596
355.758
355.91
360.935
360.898
360.825
360.72
360.582
360.416
360.228
360.023
359.808
359.585
359.358
359.127
358.893
358.656
358.417
358.177
357.937
357.7
357.465
357.235
357.01
356.791
356.579
356.373
356.176
355.986
355.805
355.632
355.467
355.311
355.162
355.02
354.885
354.757
354.634
354.517
354.404
354.296
354.191
354.09
353.991
353.895
353.801
353.709
353.619
353.531
353.443
353.357
353.272
353.188
353.105
353.023
352.942
352.862
352.782
352.704
352.626
352.549
352.473
352.398
352.324
352.25
352.178
352.106
352.035
351.966
351.897
351.829
351.763
351.697
351.633
351.569
351.507
351.445
351.385
351.327
351.269
351.213
351.157
351.104
351.051
351
350.951
350.902
350.856
350.811
350.767
350.725
350.685
350.646
350.61
350.575
350.542
350.511
350.482
350.455
350.43
350.408
350.387
350.369
350.354
350.34
350.33
350.321
350.316
350.313
350.313
350.316
350.321
350.329
350.341
350.355
350.372
350.393
350.416
350.443
350.472
350.505
350.541
350.58
350.622
350.667
350.716
350.767
350.821
350.878
350.938
351.001
351.067
351.135
351.207
351.281
351.358
351.438
351.521
351.607
351.696
351.789
351.885
351.986
352.091
352.201
352.316
352.437
352.564
352.698
352.839
352.988
353.145
353.311
353.485
353.667
353.858
354.057
354.262
354.473
354.688
354.905
355.12
355.332
360.705
360.673
360.61
360.518
360.397
360.252
360.084
359.9
359.702
359.496
359.284
359.066
358.845
358.62
358.393
358.164
357.936
357.708
357.482
357.26
357.042
356.83
356.623
356.422
356.228
356.041
355.862
355.689
355.525
355.367
355.217
355.074
354.937
354.806
354.681
354.56
354.444
354.333
354.225
354.121
354.019
353.921
353.824
353.73
353.638
353.547
353.458
353.37
353.283
353.198
353.114
353.03
352.948
352.867
352.786
352.707
352.628
352.55
352.474
352.397
352.322
352.248
352.175
352.102
352.031
351.96
351.89
351.822
351.754
351.687
351.622
351.557
351.494
351.431
351.37
351.309
351.25
351.192
351.135
351.08
351.025
350.972
350.921
350.87
350.821
350.774
350.728
350.683
350.64
350.598
350.558
350.52
350.483
350.449
350.416
350.384
350.355
350.328
350.302
350.279
350.257
350.238
350.221
350.206
350.193
350.183
350.175
350.169
350.166
350.165
350.167
350.171
350.177
350.186
350.198
350.212
350.228
350.247
350.269
350.293
350.319
350.347
350.378
350.411
350.447
350.484
350.524
350.566
350.61
350.656
350.704
350.755
350.807
350.862
350.919
350.979
351.042
351.108
351.178
351.251
351.329
351.412
351.501
351.596
351.698
351.808
351.926
352.054
352.193
352.343
352.505
352.679
352.867
353.068
353.281
353.507
353.745
353.992
354.248
354.509
360.509
360.48
360.425
360.343
360.236
360.106
359.955
359.787
359.606
359.414
359.215
359.01
358.8
358.586
358.369
358.151
357.932
357.713
357.495
357.28
357.069
356.862
356.66
356.463
356.272
356.088
355.91
355.739
355.574
355.417
355.266
355.121
354.982
354.849
354.721
354.598
354.48
354.366
354.256
354.149
354.045
353.944
353.845
353.748
353.654
353.562
353.471
353.381
353.293
353.207
353.121
353.037
352.953
352.871
352.789
352.709
352.629
352.551
352.473
352.396
352.32
352.245
352.171
352.097
352.025
351.953
351.883
351.813
351.744
351.677
351.61
351.544
351.479
351.415
351.353
351.291
351.23
351.171
351.112
351.055
350.999
350.944
350.89
350.837
350.786
350.736
350.687
350.639
350.593
350.549
350.505
350.464
350.423
350.385
350.347
350.312
350.278
350.246
350.215
350.186
350.159
350.134
350.11
350.089
350.069
350.051
350.035
350.021
350.009
349.999
349.991
349.984
349.98
349.978
349.977
349.979
349.982
349.987
349.994
350.002
350.013
350.025
350.038
350.053
350.07
350.087
350.107
350.127
350.149
350.172
350.197
350.223
350.25
350.279
350.309
350.342
350.377
350.415
350.455
350.499
350.547
350.601
350.659
350.724
350.797
350.877
350.968
351.069
351.181
351.307
351.447
351.603
351.774
351.963
352.17
352.395
352.639
352.9
353.177
353.469
360.342
360.316
360.266
360.193
360.096
359.978
359.841
359.687
359.519
359.34
359.152
358.958
358.758
358.554
358.347
358.137
357.926
357.715
357.504
357.296
357.09
356.888
356.69
356.497
356.31
356.127
355.951
355.781
355.617
355.459
355.307
355.161
355.021
354.886
354.756
354.632
354.511
354.395
354.282
354.173
354.067
353.964
353.863
353.765
353.669
353.574
353.482
353.391
353.302
353.214
353.127
353.041
352.957
352.874
352.791
352.71
352.629
352.55
352.471
352.394
352.317
352.241
352.166
352.092
352.018
351.946
351.874
351.804
351.734
351.665
351.597
351.53
351.464
351.399
351.335
351.271
351.209
351.148
351.088
351.029
350.97
350.913
350.857
350.803
350.749
350.696
350.645
350.595
350.545
350.498
350.451
350.406
350.362
350.319
350.278
350.238
350.199
350.162
350.126
350.092
350.059
350.028
349.998
349.97
349.943
349.917
349.894
349.871
349.85
349.831
349.813
349.796
349.781
349.767
349.755
349.744
349.734
349.725
349.717
349.711
349.705
349.7
349.696
349.693
349.69
349.688
349.687
349.686
349.685
349.685
349.686
349.687
349.688
349.69
349.694
349.698
349.704
349.712
349.722
349.735
349.752
349.773
349.799
349.831
349.871
349.919
349.976
350.045
350.126
350.222
350.333
350.461
350.608
350.775
350.964
351.175
351.41
351.668
351.95
352.255
360.201
360.177
360.132
360.065
359.977
359.868
359.742
359.599
359.442
359.274
359.096
358.911
358.721
358.525
358.326
358.123
357.92
357.715
357.511
357.308
357.107
356.91
356.716
356.526
356.34
356.16
355.985
355.816
355.652
355.494
355.342
355.195
355.054
354.918
354.787
354.66
354.538
354.419
354.305
354.194
354.086
353.981
353.878
353.779
353.681
353.585
353.491
353.399
353.308
353.219
353.131
353.045
352.959
352.875
352.792
352.71
352.628
352.548
352.469
352.39
352.312
352.236
352.16
352.085
352.011
351.937
351.865
351.793
351.722
351.652
351.583
351.515
351.448
351.381
351.316
351.251
351.187
351.124
351.062
351.001
350.941
350.882
350.824
350.767
350.711
350.656
350.602
350.549
350.496
350.446
350.396
350.347
350.299
350.253
350.207
350.163
350.12
350.078
350.037
349.997
349.958
349.921
349.885
349.849
349.815
349.783
349.751
349.72
349.69
349.662
349.634
349.607
349.581
349.556
349.531
349.508
349.484
349.462
349.439
349.418
349.396
349.374
349.353
349.331
349.309
349.287
349.265
349.242
349.219
349.196
349.172
349.147
349.123
349.098
349.073
349.048
349.024
349.001
348.98
348.961
348.944
348.931
348.923
348.92
348.924
348.936
348.958
348.991
349.036
349.097
349.174
349.269
349.384
349.522
349.684
349.872
350.087
350.33
350.603
350.905
360.084
360.062
360.02
359.958
359.876
359.776
359.657
359.523
359.376
359.217
359.048
358.871
358.688
358.499
358.306
358.111
357.913
357.714
357.515
357.317
357.121
356.927
356.736
356.549
356.366
356.187
356.014
355.845
355.682
355.524
355.371
355.224
355.082
354.944
354.812
354.684
354.56
354.44
354.324
354.211
354.102
353.995
353.891
353.79
353.691
353.594
353.499
353.405
353.314
353.223
353.135
353.047
352.961
352.876
352.791
352.708
352.626
352.545
352.465
352.386
352.307
352.23
352.153
352.077
352.002
351.928
351.854
351.782
351.71
351.639
351.569
351.499
351.431
351.363
351.296
351.23
351.164
351.1
351.036
350.973
350.911
350.85
350.79
350.73
350.672
350.614
350.557
350.502
350.446
350.392
350.339
350.287
350.235
350.185
350.135
350.087
350.039
349.992
349.946
349.901
349.856
349.813
349.77
349.728
349.687
349.647
349.607
349.568
349.529
349.491
349.454
349.417
349.38
349.343
349.307
349.271
349.234
349.198
349.161
349.124
349.086
349.048
349.009
348.969
348.928
348.886
348.842
348.798
348.752
348.705
348.656
348.606
348.554
348.502
348.448
348.394
348.339
348.284
348.23
348.176
348.125
348.076
348.031
347.991
347.957
347.931
347.914
347.908
347.914
347.935
347.974
348.031
348.11
348.213
348.342
348.499
348.686
348.905
349.158
349.446
359.989
359.969
359.929
359.871
359.794
359.699
359.588
359.461
359.321
359.169
359.007
358.837
358.66
358.477
358.29
358.099
357.907
357.712
357.518
357.324
357.131
356.94
356.752
356.567
356.386
356.209
356.036
355.868
355.706
355.548
355.395
355.247
355.104
354.966
354.832
354.703
354.578
354.457
354.339
354.225
354.114
354.007
353.901
353.799
353.699
353.6
353.504
353.41
353.317
353.226
353.136
353.048
352.961
352.875
352.79
352.706
352.623
352.541
352.46
352.38
352.301
352.223
352.145
352.068
351.992
351.917
351.843
351.769
351.696
351.624
351.553
351.482
351.412
351.343
351.275
351.207
351.14
351.074
351.009
350.944
350.88
350.817
350.755
350.693
350.632
350.572
350.512
350.454
350.396
350.338
350.282
350.226
350.171
350.116
350.063
350.009
349.957
349.905
349.854
349.803
349.753
349.704
349.655
349.606
349.558
349.51
349.462
349.415
349.368
349.32
349.273
349.226
349.178
349.131
349.082
349.033
348.984
348.934
348.882
348.83
348.776
348.721
348.664
348.606
348.546
348.484
348.419
348.353
348.284
348.212
348.139
348.062
347.984
347.903
347.82
347.735
347.648
347.56
347.472
347.383
347.295
347.209
347.125
347.046
346.971
346.904
346.845
346.796
346.76
346.739
346.735
346.75
346.788
346.85
346.941
347.061
347.214
347.403
347.629
347.894
359.914
359.895
359.858
359.803
359.729
359.639
359.532
359.411
359.276
359.13
358.974
358.809
358.637
358.459
358.276
358.09
357.901
357.71
357.519
357.328
357.138
356.95
356.764
356.581
356.401
356.225
356.054
355.886
355.724
355.566
355.413
355.265
355.121
354.982
354.848
354.718
354.592
354.47
354.351
354.236
354.124
354.015
353.909
353.805
353.704
353.605
353.508
353.413
353.319
353.227
353.136
353.047
352.959
352.873
352.787
352.703
352.619
352.536
352.455
352.374
352.294
352.215
352.137
352.059
351.982
351.906
351.831
351.756
351.682
351.609
351.537
351.465
351.394
351.323
351.253
351.184
351.116
351.048
350.981
350.914
350.849
350.783
350.719
350.655
350.591
350.529
350.467
350.405
350.344
350.284
350.224
350.164
350.105
350.047
349.989
349.932
349.875
349.818
349.762
349.706
349.65
349.594
349.539
349.484
349.428
349.373
349.317
349.262
349.206
349.149
349.093
349.035
348.977
348.918
348.858
348.796
348.734
348.67
348.604
348.536
348.467
348.395
348.321
348.244
348.164
348.082
347.997
347.908
347.816
347.72
347.621
347.518
347.412
347.302
347.188
347.072
346.952
346.83
346.706
346.581
346.455
346.329
346.205
346.084
345.966
345.855
345.75
345.656
345.574
345.506
345.455
345.424
345.416
345.434
345.481
345.559
345.673
345.825
346.018
346.254
359.859
359.841
359.805
359.752
359.681
359.594
359.491
359.373
359.243
359.101
358.948
358.787
358.619
358.445
358.265
358.082
357.896
357.708
357.52
357.331
357.143
356.956
356.772
356.59
356.412
356.237
356.066
355.899
355.737
355.579
355.426
355.277
355.134
354.994
354.859
354.728
354.601
354.478
354.359
354.243
354.13
354.021
353.914
353.809
353.707
353.607
353.509
353.413
353.319
353.226
353.135
353.045
352.957
352.869
352.783
352.698
352.614
352.53
352.448
352.367
352.286
352.206
352.127
352.049
351.971
351.894
351.818
351.742
351.667
351.593
351.519
351.446
351.374
351.302
351.231
351.161
351.091
351.021
350.952
350.884
350.816
350.749
350.682
350.616
350.55
350.485
350.42
350.356
350.292
350.228
350.165
350.102
350.04
349.977
349.915
349.854
349.792
349.73
349.669
349.608
349.546
349.485
349.423
349.361
349.299
349.236
349.173
349.109
349.044
348.979
348.912
348.845
348.776
348.706
348.634
348.56
348.484
348.407
348.327
348.244
348.158
348.07
347.978
347.883
347.784
347.682
347.575
347.464
347.348
347.228
347.103
346.973
346.839
346.699
346.555
346.406
346.253
346.096
345.935
345.771
345.605
345.438
345.271
345.105
344.942
344.783
344.63
344.487
344.354
344.235
344.133
344.051
343.993
343.961
343.959
343.991
344.06
344.17
344.325
344.526
359.823
359.805
359.77
359.718
359.649
359.564
359.463
359.348
359.22
359.081
358.931
358.773
358.607
358.435
358.258
358.077
357.893
357.707
357.52
357.333
357.146
356.961
356.777
356.596
356.418
356.244
356.074
355.907
355.745
355.587
355.434
355.285
355.141
355.001
354.866
354.734
354.607
354.483
354.363
354.247
354.134
354.023
353.916
353.81
353.708
353.607
353.509
353.412
353.317
353.224
353.132
353.042
352.953
352.865
352.778
352.692
352.607
352.524
352.441
352.358
352.277
352.196
352.117
352.037
351.959
351.881
351.804
351.727
351.652
351.576
351.501
351.427
351.354
351.281
351.208
351.136
351.065
350.994
350.923
350.853
350.783
350.714
350.645
350.577
350.508
350.441
350.373
350.306
350.239
350.172
350.106
350.04
349.973
349.907
349.841
349.775
349.709
349.643
349.576
349.509
349.442
349.375
349.307
349.238
349.169
349.099
349.028
348.956
348.883
348.809
348.733
348.655
348.576
348.494
348.411
348.325
348.236
348.145
348.051
347.953
347.852
347.747
347.638
347.524
347.406
347.283
347.155
347.021
346.882
346.737
346.587
346.43
346.266
346.097
345.921
345.739
345.551
345.357
345.158
344.954
344.747
344.536
344.323
344.11
343.898
343.689
343.484
343.287
343.1
342.926
342.768
342.63
342.515
342.427
342.371
342.35
342.369
342.432
342.543
342.705
359.805
359.787
359.752
359.701
359.633
359.549
359.449
359.336
359.209
359.071
358.922
358.765
358.601
358.43
358.254
358.074
357.891
357.706
357.519
357.333
357.147
356.962
356.779
356.599
356.421
356.247
356.077
355.91
355.748
355.59
355.437
355.288
355.144
355.004
354.868
354.736
354.609
354.485
354.364
354.247
354.134
354.023
353.915
353.809
353.706
353.605
353.506
353.409
353.314
353.22
353.128
353.037
352.947
352.859
352.772
352.685
352.6
352.516
352.432
352.349
352.267
352.186
352.105
352.025
351.946
351.867
351.789
351.712
351.635
351.559
351.483
351.408
351.333
351.258
351.185
351.111
351.038
350.965
350.893
350.821
350.75
350.678
350.607
350.537
350.466
350.396
350.326
350.256
350.186
350.116
350.047
349.977
349.907
349.837
349.767
349.697
349.626
349.555
349.483
349.411
349.339
349.266
349.191
349.116
349.04
348.963
348.884
348.804
348.723
348.64
348.554
348.467
348.377
348.285
348.19
348.092
347.99
347.886
347.777
347.665
347.548
347.426
347.3
347.168
347.03
346.887
346.738
346.582
346.419
346.249
346.072
345.888
345.695
345.495
345.287
345.071
344.847
344.615
344.377
344.132
343.88
343.624
343.363
343.1
342.836
342.572
342.312
342.057
341.811
341.576
341.356
341.156
340.979
340.829
340.713
340.633
340.595
340.604
340.665
340.782
359.804
359.786
359.752
359.7
359.632
359.548
359.449
359.335
359.208
359.07
358.922
358.765
358.6
358.429
358.253
358.073
357.89
357.705
357.518
357.332
357.146
356.961
356.778
356.598
356.42
356.246
356.075
355.909
355.747
355.589
355.435
355.286
355.142
355.002
354.866
354.734
354.606
354.482
354.361
354.244
354.13
354.019
353.911
353.805
353.702
353.601
353.502
353.404
353.309
353.215
353.122
353.031
352.941
352.852
352.764
352.677
352.592
352.507
352.422
352.339
352.256
352.175
352.093
352.013
351.933
351.853
351.774
351.696
351.618
351.541
351.464
351.387
351.311
351.236
351.16
351.086
351.011
350.937
350.863
350.789
350.716
350.642
350.569
350.497
350.424
350.351
350.278
350.206
350.133
350.06
349.987
349.914
349.841
349.767
349.693
349.618
349.543
349.467
349.391
349.314
349.236
349.157
349.076
348.995
348.912
348.828
348.742
348.654
348.564
348.472
348.377
348.28
348.18
348.077
347.971
347.861
347.747
347.629
347.506
347.379
347.247
347.109
346.965
346.815
346.659
346.495
346.324
346.146
345.96
345.765
345.561
345.349
345.127
344.895
344.654
344.403
344.143
343.873
343.593
343.305
343.008
342.703
342.392
342.076
341.756
341.435
341.114
340.797
340.485
340.184
339.897
339.628
339.382
339.163
338.978
338.832
338.73
338.679
338.682
338.747
359.822
359.803
359.768
359.716
359.648
359.562
359.462
359.347
359.219
359.079
358.93
358.771
358.605
358.433
358.256
358.075
357.89
357.704
357.517
357.33
357.143
356.958
356.774
356.593
356.415
356.24
356.07
355.903
355.74
355.582
355.429
355.28
355.135
354.995
354.859
354.727
354.6
354.476
354.355
354.238
354.124
354.013
353.905
353.799
353.696
353.594
353.495
353.397
353.302
353.207
353.115
353.023
352.933
352.844
352.756
352.668
352.582
352.497
352.412
352.328
352.245
352.162
352.08
351.999
351.918
351.838
351.758
351.679
351.6
351.522
351.444
351.366
351.289
351.212
351.136
351.06
350.984
350.908
350.832
350.757
350.681
350.606
350.531
350.456
350.381
350.306
350.231
350.155
350.08
350.004
349.928
349.851
349.774
349.697
349.619
349.54
349.461
349.38
349.299
349.217
349.133
349.049
348.962
348.875
348.785
348.694
348.6
348.505
348.407
348.306
348.202
348.096
347.986
347.872
347.754
347.633
347.506
347.375
347.239
347.097
346.949
346.795
346.634
346.467
346.291
346.108
345.916
345.715
345.505
345.285
345.055
344.814
344.562
344.299
344.025
343.739
343.44
343.13
342.808
342.475
342.131
341.776
341.412
341.039
340.66
340.277
339.891
339.506
339.124
338.75
338.388
338.043
337.72
337.424
337.162
336.941
336.766
336.645
336.584
336.589
359.857
359.839
359.803
359.749
359.679
359.591
359.488
359.371
359.24
359.098
358.946
358.784
358.616
358.441
358.262
358.079
357.893
357.705
357.516
357.327
357.138
356.951
356.767
356.585
356.406
356.231
356.059
355.892
355.729
355.571
355.417
355.268
355.124
354.984
354.848
354.717
354.589
354.465
354.345
354.228
354.114
354.004
353.896
353.79
353.687
353.586
353.486
353.389
353.293
353.199
353.106
353.014
352.924
352.834
352.746
352.658
352.572
352.486
352.401
352.316
352.233
352.15
352.067
351.985
351.904
351.823
351.742
351.662
351.582
351.503
351.424
351.345
351.267
351.189
351.111
351.033
350.956
350.878
350.801
350.724
350.647
350.57
350.493
350.416
350.338
350.261
350.183
350.105
350.027
349.948
349.869
349.789
349.708
349.627
349.545
349.463
349.379
349.294
349.208
349.121
349.032
348.942
348.85
348.756
348.66
348.562
348.461
348.358
348.252
348.142
348.03
347.914
347.794
347.67
347.541
347.408
347.269
347.125
346.976
346.819
346.657
346.487
346.309
346.123
345.929
345.726
345.513
345.29
345.056
344.811
344.554
344.285
344.004
343.709
343.4
343.078
342.741
342.39
342.025
341.645
341.251
340.844
340.424
339.992
339.55
339.1
338.644
338.186
337.727
337.274
336.829
336.4
335.99
335.608
335.259
334.952
334.695
334.494
334.358
334.295
359.911
359.892
359.855
359.799
359.726