/*--------------------------------*- C++ -*----------------------------------*\
| =========                 |                                                 |
| \\      /  F ield         | OpenFOAM: The Open Source CFD Toolbox           |
|  \\    /   O peration     | Version:  2306                                  |
|   \\  /    A nd           | Website:  www.openfoam.com                      |
|    \\/     M anipulation  |                                                 |
\*---------------------------------------------------------------------------*/
FoamFile
{
    version     2.0;
    format      ascii;
    arch        "LSB;label=32;scalar=64";
    class       surfaceScalarField;
    location    "0.5";
    object      phi;
}
// * * * * * * * * * * * * * * * * * * * * * * * * * * * * * * * * * * * * * //

dimensions      [0 3 -1 0 0 0 0];

oriented        oriented;

internalField   nonuniform List<scalar> 
34640
(
0.0049244
7.55987e-05
0.00478599
0.000138414
0.00463052
0.000155467
0.00447385
0.000156669
0.00431583
0.000158023
0.00415467
0.000161162
0.00399075
0.00016392
0.00382542
0.00016533
0.00366031
0.000165105
0.00349681
0.000163498
0.00333583
0.000160982
0.00317796
0.000157867
0.00302375
0.000154218
0.00287375
0.000149992
0.00272862
0.000145136
0.00258899
0.000139631
0.00245555
0.000133441
0.0023289
0.00012665
0.0022094
0.000119491
0.00209747
0.000111939
0.00199339
0.000104075
0.00189738
9.60093e-05
0.00180952
8.78649e-05
0.00172975
7.97704e-05
0.00165789
7.18533e-05
0.00159366
6.42328e-05
0.00153665
5.70131e-05
0.00148637
5.02793e-05
0.00144227
4.40936e-05
0.00140378
3.84956e-05
0.00137028
3.3502e-05
0.00134117
2.91098e-05
0.00131587
2.52986e-05
0.00129383
2.20356e-05
0.00127455
1.92783e-05
0.00125758
1.69784e-05
0.0012425
1.50809e-05
0.00122897
1.35222e-05
0.00121672
1.22524e-05
0.00120549
1.12311e-05
0.00119507
1.04214e-05
0.00118528
9.78824e-06
0.00117598
9.29872e-06
0.00116706
8.92386e-06
0.00115842
8.63887e-06
0.00115
8.42315e-06
0.00114174
8.25988e-06
0.0011336
8.13548e-06
0.00112556
8.03912e-06
0.0011176
7.96228e-06
0.0011097
7.89838e-06
0.00110186
7.84248e-06
0.00109407
7.79097e-06
0.00108633
7.74136e-06
0.00107863
7.69202e-06
0.00107099
7.64198e-06
0.0010634
7.5908e-06
0.00105586
7.53845e-06
0.00104838
7.48515e-06
0.00104095
7.43133e-06
0.00103357
7.37756e-06
0.00102624
7.32449e-06
0.00101897
7.27281e-06
0.00101175
7.22323e-06
0.00100457
7.17645e-06
0.000997438
7.13318e-06
0.000990344
7.09406e-06
0.000983284
7.05974e-06
0.000976253
7.03079e-06
0.000969246
7.00777e-06
0.000962254
6.99119e-06
0.000955273
6.98148e-06
0.000948294
6.97909e-06
0.000941309
6.98442e-06
0.000934311
6.99791e-06
0.000927292
7.01997e-06
0.000920241
7.051e-06
0.000913149
7.09137e-06
0.000906008
7.14146e-06
0.000898806
7.20163e-06
0.000891534
7.27226e-06
0.00088418
7.35372e-06
0.000876734
7.44638e-06
0.000869183
7.55061e-06
0.000861516
7.6668e-06
0.000853721
7.79536e-06
0.000845784
7.93666e-06
0.000837693
8.09113e-06
0.000829434
8.25918e-06
0.000820993
8.44122e-06
0.000812355
8.63768e-06
0.000803506
8.84897e-06
0.000794431
9.07551e-06
0.000785113
9.3177e-06
0.000775537
9.57592e-06
0.000765686
9.85056e-06
0.000755545
1.01419e-05
0.000745094
1.04504e-05
0.000734318
1.07761e-05
0.000723199
1.11192e-05
0.000711719
1.148e-05
0.000699861
1.18583e-05
0.000687606
1.22541e-05
0.000674939
1.26671e-05
0.000661842
1.30969e-05
0.000648299
1.35431e-05
0.000634294
1.4005e-05
0.000619813
1.44815e-05
0.000604842
1.49714e-05
0.000589369
1.5473e-05
0.000573384
1.59844e-05
0.000556881
1.65036e-05
0.000539853
1.70277e-05
0.000522299
1.75535e-05
0.000504222
1.80773e-05
0.000485627
1.85948e-05
0.000466526
1.91014e-05
0.000446934
1.95916e-05
0.000426875
2.00595e-05
0.000406376
2.04986e-05
0.000385474
2.0902e-05
0.000364212
2.12622e-05
0.000342641
2.15715e-05
0.000320819
2.18219e-05
0.000298813
2.20055e-05
0.000276698
2.21147e-05
0.000254556
2.21425e-05
0.000232474
2.20824e-05
0.000210544
2.19296e-05
0.000188864
2.16802e-05
0.000167532
2.13321e-05
0.000146647
2.08848e-05
0.000126308
2.0339e-05
0.000106611
1.96967e-05
8.76509e-05
1.89603e-05
6.95195e-05
1.81314e-05
5.23086e-05
1.72108e-05
3.61098e-05
1.61989e-05
2.10118e-05
1.5098e-05
7.09686e-06
1.39149e-05
-5.57595e-06
1.26728e-05
-1.69737e-05
1.13977e-05
-2.7101e-05
1.01273e-05
-3.60096e-05
8.90862e-06
-4.37826e-05
7.77301e-06
-5.0505e-05
6.72231e-06
-5.62321e-05
5.72718e-06
-6.09785e-05
4.74634e-06
-6.47339e-05
3.75539e-06
-6.75099e-05
2.77603e-06
-6.93996e-05
1.8897e-06
-7.05705e-05
1.17092e-06
-7.11859e-05
6.15325e-07
-7.13092e-05
1.23308e-07
-7.09317e-05
-3.77452e-07
-7.00921e-05
-8.39671e-07
-6.89107e-05
-1.18137e-06
-6.7479e-05
-1.43167e-06
-6.57822e-05
-1.69685e-06
-2.0515e-06
-6.37307e-05
0.00503752
3.80749e-05
0.0050774
9.85349e-05
0.00509715
0.00013572
0.00510102
0.000152795
0.00509795
0.000161096
0.00509063
0.000168478
0.0050778
0.000176757
0.00505833
0.000184798
0.00503218
0.00019126
0.005
0.000195672
0.00496268
0.000198302
0.00492096
0.000199591
0.00487537
0.000199809
0.00482632
0.000199042
0.00477418
0.000197272
0.00471935
0.000194459
0.0046622
0.000190594
0.00460311
0.000185743
0.00454259
0.000180008
0.00448106
0.000173464
0.00441894
0.0001662
0.00435661
0.000158338
0.00429446
0.00015002
0.00423282
0.000141403
0.00417203
0.000132645
0.00411236
0.000123904
0.00405405
0.000115322
0.0039973
0.000107027
0.00394227
9.9126e-05
0.00388907
9.17002e-05
0.00383776
8.48059e-05
0.0037884
7.84777e-05
0.00374097
7.2726e-05
0.00369546
6.7546e-05
0.00365182
6.29153e-05
0.00360999
5.88134e-05
0.00356982
5.52457e-05
0.00353129
5.20511e-05
0.00349432
4.92224e-05
0.00345882
4.67356e-05
0.00342469
4.45528e-05
0.00339184
4.26362e-05
0.00336019
4.095e-05
0.00332965
3.94613e-05
0.00330015
3.81405e-05
0.00327161
3.6962e-05
0.00324397
3.59035e-05
0.00321716
3.49462e-05
0.00319112
3.40741e-05
0.00316581
3.32737e-05
0.00314117
3.25342e-05
0.00311717
3.18463e-05
0.00309376
3.12027e-05
0.0030709
3.05977e-05
0.00304857
3.00268e-05
0.00302672
2.94864e-05
0.00300534
2.89739e-05
0.00298439
2.84874e-05
0.00296385
2.80255e-05
0.00294369
2.75871e-05
0.0029239
2.71718e-05
0.00290444
2.67792e-05
0.00288531
2.64091e-05
0.00286647
2.60617e-05
0.00284791
2.57372e-05
0.00282961
2.54357e-05
0.00281154
2.51577e-05
0.0027937
2.49036e-05
0.00277606
2.46739e-05
0.00275859
2.4469e-05
0.0027413
2.42895e-05
0.00272414
2.41357e-05
0.00270711
2.40082e-05
0.00269019
2.39076e-05
0.00267335
2.38345e-05
0.00265658
2.37897e-05
0.00263986
2.37739e-05
0.00262316
2.37879e-05
0.00260647
2.38324e-05
0.00258977
2.39083e-05
0.00257302
2.40166e-05
0.00255622
2.41581e-05
0.00253933
2.43338e-05
0.00252234
2.45449e-05
0.00250521
2.47925e-05
0.00248793
2.50778e-05
0.00247046
2.5402e-05
0.00245279
2.57664e-05
0.00243487
2.61725e-05
0.00241669
2.66218e-05
0.00239822
2.71157e-05
0.00237941
2.76559e-05
0.00236024
2.8244e-05
0.00234068
2.88818e-05
0.00232068
2.95709e-05
0.00230022
3.03132e-05
0.00227925
3.11106e-05
0.00225774
3.19648e-05
0.00223563
3.28776e-05
0.0022129
3.3851e-05
0.0021895
3.48867e-05
0.00216537
3.59864e-05
0.00214047
3.71516e-05
0.00211475
3.83837e-05
0.00208817
3.9683e-05
0.00206066
4.10519e-05
0.00203217
4.24912e-05
0.00200265
4.4001e-05
0.00197204
4.55811e-05
0.00194028
4.72309e-05
0.00190732
4.89496e-05
0.00187309
5.07356e-05
0.00183753
5.25863e-05
0.00180058
5.44978e-05
0.0017622
5.64653e-05
0.00172231
5.84829e-05
0.00168087
6.05431e-05
0.00163782
6.26368e-05
0.00159313
6.47533e-05
0.00154675
6.68797e-05
0.00149865
6.9001e-05
0.00144881
7.11e-05
0.00139722
7.31568e-05
0.0013439
7.51488e-05
0.00128885
7.70507e-05
0.00123213
7.88343e-05
0.00117381
8.04684e-05
0.00111397
8.19187e-05
0.00105275
8.31483e-05
0.000990315
8.41178e-05
0.000926861
8.47858e-05
0.000862636
8.51099e-05
0.000797927
8.50477e-05
0.000733065
8.45585e-05
0.00066842
8.36057e-05
0.000604392
8.21589e-05
0.000541406
8.01977e-05
0.00047989
7.77148e-05
0.000420265
7.47226e-05
0.000362926
7.12538e-05
0.000308228
6.73706e-05
0.000256473
6.31531e-05
0.000207904
5.86964e-05
0.000162712
5.41006e-05
0.000121036
4.94483e-05
8.29628e-05
4.4796e-05
4.84994e-05
4.01905e-05
1.76242e-05
3.56216e-05
-9.59172e-06
3.09713e-05
-3.32904e-05
2.64747e-05
-5.36843e-05
2.22836e-05
-7.11686e-05
1.86552e-05
-8.59636e-05
1.54103e-05
-9.81937e-05
1.23534e-05
-0.000107999
9.4276e-06
-0.000115602
6.76359e-06
-0.000121321
4.53747e-06
-0.000125409
2.6567e-06
-0.000127967
8.60623e-07
-1.01508e-06
-0.000129003
0.00501445
2.36272e-05
0.00504447
6.85094e-05
0.00507418
0.000106011
0.00509859
0.000128388
0.00511781
0.000141877
0.00513503
0.000151254
0.00515196
0.000159828
0.00516818
0.000168575
0.00518272
0.000176724
0.00519492
0.000183472
0.00520465
0.000188572
0.00521208
0.000192158
0.0052174
0.000194495
0.00522066
0.000195783
0.00522183
0.000196102
0.00522084
0.000195444
0.00521764
0.000193794
0.00521223
0.000191159
0.00520467
0.000187566
0.00519503
0.000183107
0.00518337
0.000177854
0.00516981
0.000171904
0.00515445
0.000165375
0.00513745
0.000158403
0.00511897
0.000151128
0.00509918
0.000143692
0.00507827
0.000136233
0.00505642
0.000128877
0.00503381
0.000121736
0.00501061
0.0001149
0.00498697
0.000108441
0.00496304
0.00010241
0.00493893
9.68344e-05
0.00491475
9.17299e-05
0.00489057
8.70956e-05
0.00486646
8.29208e-05
0.00484253
7.91787e-05
0.00481876
7.58144e-05
0.00479519
7.27939e-05
0.00477184
7.00923e-05
0.00474871
6.76823e-05
0.00472581
6.55336e-05
0.00470314
6.3615e-05
0.00468071
6.18967e-05
0.0046585
6.03512e-05
0.00463651
5.89543e-05
0.00461472
5.76844e-05
0.00459315
5.65229e-05
0.00457177
5.54541e-05
0.00455058
5.44643e-05
0.00452957
5.35424e-05
0.00450874
5.26788e-05
0.00448807
5.18661e-05
0.00446757
5.1098e-05
0.00444723
5.03697e-05
0.00442704
4.96775e-05
0.00440699
4.90187e-05
0.00438709
4.8391e-05
0.00436732
4.77933e-05
0.00434768
4.72245e-05
0.00432817
4.66842e-05
0.00430878
4.61723e-05
0.0042895
4.56889e-05
0.00427033
4.52345e-05
0.00425125
4.48095e-05
0.00423228
4.44147e-05
0.00421338
4.40509e-05
0.00419457
4.37189e-05
0.00417582
4.34199e-05
0.00415714
4.3155e-05
0.0041385
4.29254e-05
0.0041199
4.27317e-05
0.00410134
4.25752e-05
0.00408279
4.24572e-05
0.00406424
4.23793e-05
0.00404569
4.23427e-05
0.00402711
4.2349e-05
0.0040085
4.23998e-05
0.00398984
4.24968e-05
0.0039711
4.26417e-05
0.00395228
4.28364e-05
0.00393336
4.30828e-05
0.00391431
4.33829e-05
0.00389512
4.37389e-05
0.00387576
4.41531e-05
0.00385621
4.46278e-05
0.00383644
4.51657e-05
0.00381644
4.57693e-05
0.00379617
4.64414e-05
0.00377561
4.71851e-05
0.00375472
4.80035e-05
0.00373348
4.88996e-05
0.00371184
4.98771e-05
0.00368979
5.09393e-05
0.00366727
5.20901e-05
0.00364425
5.33333e-05
0.00362068
5.46728e-05
0.00359654
5.61128e-05
0.00357176
5.76575e-05
0.0035463
5.93113e-05
0.0035201
6.10786e-05
0.00349313
6.29639e-05
0.00346531
6.49715e-05
0.00343658
6.71059e-05
0.0034069
6.93713e-05
0.00337618
7.17726e-05
0.00334435
7.43141e-05
0.00331135
7.69998e-05
0.0032771
7.9833e-05
0.00324152
8.28161e-05
0.00320451
8.59533e-05
0.003166
8.92467e-05
0.00312589
9.26971e-05
0.00308408
9.63048e-05
0.00304048
0.000100069
0.00299498
0.000103987
0.00294746
0.000108055
0.00289784
0.000112266
0.00284598
0.000116613
0.00279177
0.000121085
0.0027351
0.000125667
0.00267586
0.000130343
0.00261393
0.000135092
0.00254919
0.000139887
0.00248154
0.0001447
0.00241088
0.000149493
0.00233712
0.000154227
0.00226019
0.000158852
0.00218002
0.000163315
0.00209659
0.000167552
0.00200988
0.000171493
0.00191993
0.000175059
0.00182681
0.000178164
0.00173065
0.000180718
0.00163164
0.000182624
0.00153002
0.000183778
0.00142614
0.000184076
0.00132044
0.000183411
0.00121348
0.000181683
0.00110593
0.000178805
0.000998596
0.000174706
0.000892406
0.000169343
0.000788397
0.000162705
0.00068767
0.000154828
0.000591316
0.000145802
0.000500336
0.000135776
0.000415564
0.000124963
0.000337551
0.000113634
0.00026639
0.000102133
0.000202037
9.08274e-05
0.000144305
8.0016e-05
9.30929e-05
6.9867e-05
4.80451e-05
6.04581e-05
9.04318e-06
5.13553e-05
-2.42872e-05
4.2758e-05
-5.24519e-05
3.49282e-05
-7.61484e-05
2.8234e-05
-9.57452e-05
2.22535e-05
-0.000111539
1.66542e-05
1.13071e-05
-0.000123861
0.00500634
1.72885e-05
0.00502385
5.09992e-05
0.00504705
8.28146e-05
0.00506939
0.000106043
0.00508908
0.000122188
0.00510685
0.000133478
0.00512443
0.000142249
0.00514265
0.000150363
0.00516108
0.000158285
0.00517925
0.000165303
0.00519682
0.000171003
0.00521368
0.000175302
0.00522985
0.000178325
0.00524536
0.00018027
0.00526017
0.000181294
0.00527418
0.000181439
0.00528726
0.000180714
0.00529929
0.000179121
0.00531018
0.000176681
0.00531983
0.000173451
0.00532819
0.000169498
0.00533519
0.000164904
0.0053408
0.000159764
0.00534502
0.000154184
0.00534787
0.000148281
0.00534938
0.000142173
0.00534964
0.000135975
0.00534872
0.000129796
0.00534672
0.000123735
0.00534375
0.000117876
0.0053399
0.000112287
0.00533529
0.00010702
0.00533002
0.00010211
0.00532417
9.75771e-05
0.00531784
9.34286e-05
0.0053111
8.96571e-05
0.00530403
8.62458e-05
0.00529667
8.31734e-05
0.00528906
8.04123e-05
0.00528121
7.79371e-05
0.00527317
7.57241e-05
0.00526495
7.37492e-05
0.00525658
7.19873e-05
0.00524806
7.04135e-05
0.00523941
6.90041e-05
0.00523063
6.77373e-05
0.00522172
6.65937e-05
0.00521269
6.55561e-05
0.00520353
6.46098e-05
0.00519425
6.37419e-05
0.00518485
6.29416e-05
0.00517533
6.21997e-05
0.00516569
6.15089e-05
0.00515592
6.08628e-05
0.00514604
6.02567e-05
0.00513603
5.96866e-05
0.0051259
5.91498e-05
0.00511564
5.8644e-05
0.00510527
5.81679e-05
0.00509477
5.77205e-05
0.00508416
5.73014e-05
0.00507342
5.69107e-05
0.00506256
5.65485e-05
0.00505158
5.62156e-05
0.00504047
5.59127e-05
0.00502925
5.56408e-05
0.0050179
5.54011e-05
0.00500642
5.51949e-05
0.00499482
5.50237e-05
0.00498308
5.48891e-05
0.00497122
5.47928e-05
0.00495921
5.4736e-05
0.00494707
5.47206e-05
0.00493478
5.47486e-05
0.00492233
5.4822e-05
0.00490973
5.49431e-05
0.00489697
5.5114e-05
0.00488403
5.53371e-05
0.00487091
5.5615e-05
0.0048576
5.59502e-05
0.00484409
5.63454e-05
0.00483037
5.68037e-05
0.00481643
5.73279e-05
0.00480225
5.79214e-05
0.00478781
5.85876e-05
0.00477311
5.93299e-05
0.00475812
6.01523e-05
0.00474283
6.10586e-05
0.00472722
6.2053e-05
0.00471127
6.314e-05
0.00469495
6.43242e-05
0.00467824
6.56105e-05
0.00466111
6.7004e-05
0.00464354
6.85102e-05
0.00462549
7.01347e-05
0.00460694
7.18833e-05
0.00458785
7.37624e-05
0.00456819
7.57783e-05
0.00454791
7.79378e-05
0.00452697
8.02479e-05
0.00450533
8.27158e-05
0.00448295
8.5349e-05
0.00445977
8.81549e-05
0.00443573
9.11417e-05
0.00441078
9.43173e-05
0.00438487
9.76899e-05
0.00435791
0.000101268
0.00432985
0.00010506
0.00430061
0.000109073
0.00427011
0.000113316
0.00423827
0.000117798
0.00420499
0.000122524
0.00417018
0.000127504
0.00413375
0.000132741
0.00409557
0.000138243
0.00405555
0.000144013
0.00401355
0.000150054
0.00396945
0.000156367
0.00392311
0.000162951
0.00387439
0.000169802
0.00382314
0.000176916
0.00376921
0.000184281
0.00371241
0.000191884
0.00365259
0.000199708
0.00358956
0.000207729
0.00352314
0.000215918
0.00345313
0.000224238
0.00337933
0.000232646
0.00330156
0.000241088
0.00321961
0.000249503
0.00313329
0.000257816
0.0030424
0.000265944
0.00294678
0.000273781
0.00284628
0.00028122
0.00274075
0.00028815
0.0026301
0.000294429
0.00251427
0.000299906
0.00239326
0.000304419
0.00226715
0.000307795
0.00213611
0.000309852
0.00200041
0.000310401
0.0018605
0.000309256
0.00171696
0.000306241
0.0015706
0.000301191
0.00142245
0.000293948
0.00127385
0.000284383
0.00112639
0.000272419
0.00098196
0.000258065
0.000842648
0.000241444
0.000710641
0.000222835
0.000587973
0.000202683
0.000476254
0.000181586
0.00037649
0.000160222
0.000288493
0.000139352
0.000211521
0.000119731
0.000144553
0.000101896
8.6688e-05
8.60988e-05
3.72748e-05
7.16667e-05
-4.36978e-06
5.82988e-05
4.60265e-05
-3.90892e-05
0.00500365
1.36379e-05
0.00501435
4.03032e-05
0.00503119
6.59761e-05
0.00504934
8.78854e-05
0.00506702
0.00010451
0.00508362
0.000116874
0.00509961
0.000126268
0.0051158
0.000134164
0.00513256
0.000141532
0.00514965
0.000148213
0.00516675
0.000153905
0.00518365
0.000158395
0.0052003
0.000161681
0.00521666
0.000163903
0.00523276
0.000165199
0.00524854
0.000165659
0.00526393
0.000165325
0.00527883
0.000164221
0.00529314
0.000162373
0.00530676
0.000159823
0.00531963
0.000156631
0.00533166
0.000152869
0.00534281
0.000148618
0.00535303
0.000143968
0.00536229
0.000139015
0.00537061
0.000133857
0.00537799
0.000128592
0.00538448
0.000123311
0.00539011
0.000118099
0.00539496
0.000113029
0.00539908
0.000108163
0.00540256
0.000103549
0.00540545
9.92204e-05
0.00540782
9.51997e-05
0.00540975
9.14967e-05
0.0054113
8.81102e-05
0.00541251
8.50331e-05
0.00541343
8.22537e-05
0.00541409
7.97536e-05
0.00541452
7.75115e-05
0.00541474
7.55065e-05
0.00541477
7.37182e-05
0.00541463
7.21263e-05
0.00541433
7.07103e-05
0.00541388
6.94504e-05
0.00541329
6.83278e-05
0.00541256
6.73252e-05
0.00541169
6.64271e-05
0.00541068
6.56201e-05
0.00540953
6.48923e-05
0.00540824
6.42335e-05
0.0054068
6.36351e-05
0.00540522
6.30898e-05
0.00540349
6.25915e-05
0.00540161
6.21355e-05
0.00539958
6.17177e-05
0.0053974
6.13352e-05
0.00539506
6.09857e-05
0.00539256
6.06676e-05
0.0053899
6.038e-05
0.00538708
6.01223e-05
0.00538409
5.98943e-05
0.00538095
5.96965e-05
0.00537763
5.95293e-05
0.00537415
5.93937e-05
0.0053705
5.92906e-05
0.00536668
5.92213e-05
0.00536269
5.91874e-05
0.00535852
5.91904e-05
0.00535418
5.92321e-05
0.00534966
5.93145e-05
0.00534495
5.94392e-05
0.00534007
5.96085e-05
0.00533499
5.98247e-05
0.00532972
6.00901e-05
0.00532426
6.04075e-05
0.00531859
6.07795e-05
0.00531272
6.1209e-05
0.00530664
6.16991e-05
0.00530033
6.22529e-05
0.0052938
6.28738e-05
0.00528704
6.35655e-05
0.00528004
6.43316e-05
0.00527278
6.51761e-05
0.00526527
6.61033e-05
0.00525748
6.71176e-05
0.00524941
6.82236e-05
0.00524104
6.94265e-05
0.00523236
7.07313e-05
0.00522336
7.21437e-05
0.00521401
7.36694e-05
0.00520431
7.53146e-05
0.00519423
7.7086e-05
0.00518375
7.89902e-05
0.00517285
8.10345e-05
0.00516151
8.32265e-05
0.00514969
8.55741e-05
0.00513739
8.80859e-05
0.00512455
9.07704e-05
0.00511116
9.36369e-05
0.00509719
9.66949e-05
0.00508258
9.99546e-05
0.00506731
0.000103426
0.00505133
0.00010712
0.0050346
0.000111049
0.00501707
0.000115223
0.00499868
0.000119654
0.00497938
0.000124355
0.00495912
0.000129338
0.00493782
0.000134616
0.00491542
0.000140202
0.00489183
0.000146108
0.00486699
0.000152347
0.0048408
0.000158932
0.00481317
0.000165874
0.004784
0.000173185
0.00475318
0.000180875
0.00472059
0.000188953
0.00468611
0.000197428
0.00464961
0.000206306
0.00461093
0.00021559
0.00456993
0.000225281
0.00452644
0.000235378
0.00448027
0.000245875
0.00443124
0.00025676
0.00437914
0.000268019
0.00432375
0.000279627
0.00426484
0.000291557
0.00420216
0.000303768
0.00413545
0.000316215
0.00406443
0.000328836
0.00398881
0.00034156
0.00390829
0.000354301
0.00382255
0.000366962
0.00373127
0.000379432
0.00363412
0.000391578
0.00353078
0.000403249
0.00342092
0.000414276
0.00330425
0.000424469
0.00318048
0.000433619
0.00304939
0.000441494
0.00291082
0.000447823
0.00276471
0.000452347
0.00261109
0.000454814
0.00245014
0.000454903
0.00228222
0.0004523
0.00210793
0.000446703
0.00192816
0.000437838
0.00174412
0.000425483
0.00155748
0.000409477
0.00137045
0.000389715
0.00118584
0.00036619
0.00100701
0.000339059
0.000837621
0.000308739
0.000681335
0.000276017
0.00054116
0.000242071
0.000418971
0.000208288
0.00031456
0.000176077
0.000226153
0.000146706
0.0001209
0.00015128
0.00500249
1.11484e-05
0.00500982
3.29723e-05
0.00502171
5.40913e-05
0.00503621
7.33814e-05
0.00505142
8.93032e-05
0.00506648
0.000101814
0.00508114
0.000111609
0.00509573
0.000119566
0.00511075
0.000126516
0.00512619
0.000132768
0.00514189
0.000138212
0.00515762
0.000142662
0.00517324
0.00014606
0.00518869
0.000148451
0.00520396
0.000149932
0.00521902
0.0001506
0.00523382
0.000150523
0.0052483
0.000149744
0.00526237
0.000148299
0.00527597
0.000146228
0.00528902
0.000143583
0.00530146
0.000140426
0.00531325
0.00013683
0.00532435
0.00013287
0.00533473
0.00012863
0.00534439
0.000124193
0.00535334
0.000119642
0.0053616
0.000115055
0.00536919
0.000110505
0.00537617
0.000106055
0.00538257
0.00010176
0.00538846
9.76637e-05
0.00539388
9.37986e-05
0.00539889
9.01867e-05
0.00540355
8.68401e-05
0.0054079
8.37629e-05
0.00541198
8.09532e-05
0.00541583
7.84042e-05
0.00541948
7.61034e-05
0.00542295
7.40349e-05
0.00542628
7.21812e-05
0.00542947
7.05254e-05
0.00543255
6.90504e-05
0.00543552
6.77396e-05
0.00543839
6.65763e-05
0.00544117
6.55446e-05
0.00544387
6.46294e-05
0.00544648
6.38172e-05
0.005449
6.30957e-05
0.00545144
6.24542e-05
0.00545379
6.18832e-05
0.00545605
6.13747e-05
0.00545822
6.09219e-05
0.00546029
6.0519e-05
0.00546227
6.01612e-05
0.00546414
5.98447e-05
0.00546591
5.95664e-05
0.00546757
5.93241e-05
0.00546912
5.91161e-05
0.00547056
5.89414e-05
0.00547188
5.87992e-05
0.00547309
5.86895e-05
0.00547417
5.86124e-05
0.00547513
5.85684e-05
0.00547597
5.85584e-05
0.00547668
5.85833e-05
0.00547725
5.86446e-05
0.0054777
5.87437e-05
0.00547801
5.88822e-05
0.00547818
5.9062e-05
0.0054782
5.9285e-05
0.00547809
5.95534e-05
0.00547783
5.98695e-05
0.00547742
6.02357e-05
0.00547685
6.06547e-05
0.00547613
6.11294e-05
0.00547525
6.16626e-05
0.0054742
6.22576e-05
0.00547298
6.29178e-05
0.00547159
6.36467e-05
0.00547001
6.44481e-05
0.00546825
6.53259e-05
0.0054663
6.62844e-05
0.00546415
6.73281e-05
0.00546179
6.84616e-05
0.00545922
6.96899e-05
0.00545642
7.10185e-05
0.0054534
7.24528e-05
0.00545013
7.39988e-05
0.00544661
7.56628e-05
0.00544283
7.74514e-05
0.00543877
7.93717e-05
0.00543443
8.14311e-05
0.00542978
8.36373e-05
0.00542481
8.59987e-05
0.00541952
8.85241e-05
0.00541387
9.12225e-05
0.00540785
9.41038e-05
0.00540144
9.71781e-05
0.00539462
0.000100456
0.00538737
0.000103949
0.00537965
0.000107669
0.00537145
0.000111628
0.00536273
0.000115839
0.00535347
0.000120316
0.00534362
0.000125072
0.00533315
0.000130123
0.00532202
0.000135484
0.00531019
0.000141169
0.00529761
0.000147196
0.00528423
0.000153582
0.00526999
0.000160342
0.00525485
0.000167495
0.00523872
0.000175057
0.00522155
0.000183047
0.00520325
0.000191482
0.00518375
0.000200378
0.00516295
0.000209753
0.00514075
0.000219623
0.00511706
0.000230001
0.00509174
0.000240903
0.00506468
0.000252339
0.00503574
0.00026432
0.00500477
0.00027685
0.00497159
0.000289935
0.00493604
0.000303573
0.00489791
0.000317757
0.00485699
0.000332477
0.00481305
0.000347712
0.00476583
0.000363435
0.00471505
0.000379609
0.00466042
0.000396187
0.00460162
0.00041311
0.00453827
0.000430305
0.00447002
0.000447684
0.00439646
0.000465142
0.00431715
0.000482556
0.00423165
0.00049978
0.00413947
0.000516645
0.00404013
0.000532958
0.00393313
0.000548496
0.00381795
0.000563005
0.00369408
0.000576215
0.00356107
0.000587827
0.00341847
0.000597497
0.00326592
0.000604851
0.00310313
0.000609491
0.00293
0.000610966
0.00274663
0.000608854
0.00255334
0.000602769
0.00235082
0.000592233
0.00214019
0.000576825
0.00192303
0.00055622
0.00170154
0.000530224
0.00147878
0.000498774
0.00125888
0.000461977
0.00104696
0.000420208
0.000848757
0.000374278
0.000669791
0.000325673
0.000276598
0.000514092
0.00500185
9.29994e-06
0.00500728
2.75392e-05
0.00501604
4.53329e-05
0.00502755
6.18694e-05
0.00504038
7.64714e-05
0.00505372
8.84769e-05
0.00506711
9.82163e-05
0.00508051
0.000106167
0.00509415
0.000112874
0.00510819
0.000118736
0.00512255
0.000123849
0.00513708
0.000128132
0.00515162
0.000131516
0.00516608
0.000133992
0.0051804
0.000135612
0.00519455
0.000136452
0.00520849
0.000136587
0.00522216
0.000136073
0.0052355
0.000134955
0.00524845
0.000133276
0.00526095
0.000131082
0.00527295
0.000128427
0.00528441
0.000125374
0.00529529
0.000121989
0.00530558
0.000118344
0.00531526
0.00011451
0.00532434
0.000110557
0.00533284
0.000106555
0.00534078
0.000102565
0.0053482
9.86426e-05
0.00535512
9.48368e-05
0.0053616
9.11867e-05
0.00536767
8.77228e-05
0.00537339
8.44668e-05
0.0053788
8.14328e-05
0.00538393
7.86279e-05
0.00538883
7.60533e-05
0.00539353
7.37055e-05
0.00539806
7.15765e-05
0.00540244
6.96546e-05
0.00540669
6.79264e-05
0.00541084
6.63777e-05
0.0054149
6.49948e-05
0.00541887
6.37636e-05
0.00542278
6.26705e-05
0.00542662
6.1702e-05
0.00543041
6.08452e-05
0.00543414
6.00882e-05
0.00543781
5.94201e-05
0.00544143
5.88313e-05
0.005445
5.83133e-05
0.00544852
5.78587e-05
0.00545198
5.74611e-05
0.00545538
5.71152e-05
0.00545873
5.68164e-05
0.00546201
5.65611e-05
0.00546523
5.63465e-05
0.00546839
5.61701e-05
0.00547147
5.60305e-05
0.00547449
5.59264e-05
0.00547743
5.58573e-05
0.0054803
5.58229e-05
0.00548309
5.58234e-05
0.00548579
5.58593e-05
0.00548842
5.59313e-05
0.00549096
5.60406e-05
0.00549342
5.61883e-05
0.00549579
5.6376e-05
0.00549806
5.66054e-05
0.00550025
5.68784e-05
0.00550234
5.71969e-05
0.00550433
5.75633e-05
0.00550622
5.79799e-05
0.005508
5.84493e-05
0.00550968
5.89742e-05
0.00551126
5.95578e-05
0.00551271
6.0203e-05
0.00551406
6.09133e-05
0.00551528
6.16922e-05
0.00551639
6.25435e-05
0.00551736
6.34712e-05
0.00551821
6.44795e-05
0.00551892
6.55729e-05
0.00551949
6.67561e-05
0.00551992
6.80343e-05
0.0055202
6.94128e-05
0.00552032
7.08971e-05
0.00552028
7.24934e-05
0.00552007
7.4208e-05
0.00551969
7.60475e-05
0.00551912
7.80192e-05
0.00551836
8.01306e-05
0.0055174
8.23896e-05
0.00551623
8.48047e-05
0.00551485
8.73848e-05
0.00551323
9.01394e-05
0.00551138
9.30783e-05
0.00550927
9.62122e-05
0.00550689
9.9552e-05
0.00550424
0.00010311
0.00550129
0.000106897
0.00549803
0.000110927
0.00549445
0.000115214
0.00549051
0.000119772
0.00548622
0.000124615
0.00548153
0.00012976
0.00547643
0.000135223
0.00547089
0.000141021
0.00546489
0.000147171
0.00545839
0.000153693
0.00545137
0.000160605
0.00544379
0.000167927
0.0054356
0.00017568
0.00542677
0.000183885
0.00541726
0.000192563
0.005407
0.000201736
0.00539596
0.000211425
0.00538406
0.000221654
0.00537123
0.000232443
0.00535742
0.000243815
0.00534253
0.00025579
0.00532648
0.000268389
0.00530917
0.000281631
0.00529049
0.000295533
0.00527032
0.000310109
0.00524852
0.000325373
0.00522494
0.000341332
0.00519943
0.000357992
0.00517179
0.000375351
0.00514182
0.000393404
0.00510929
0.000412135
0.00507396
0.000431524
0.00503553
0.000451538
0.0049937
0.000472135
0.00494812
0.000493259
0.00489842
0.00051484
0.00484419
0.000536792
0.00478496
0.000559009
0.00472024
0.000581363
0.0046495
0.000603701
0.00457215
0.000625845
0.00448757
0.000647589
0.00439509
0.000668694
0.00429403
0.000688886
0.00418367
0.000707855
0.00406328
0.000725239
0.00393214
0.000740637
0.00378951
0.000753594
0.00363473
0.000763633
0.00346726
0.000770236
0.00328666
0.000772834
0.00309268
0.000770812
0.00288539
0.000763507
0.00266522
0.000750392
0.00243312
0.000730875
0.00219073
0.000704368
0.00194045
0.00067049
0.00168559
0.00062913
0.00143085
0.000580417
0.000524817
0.00118263
0.00500144
7.86106e-06
0.00500568
2.33028e-05
0.00501255
3.84553e-05
0.00502174
5.26818e-05
0.00503256
6.56472e-05
0.00504425
7.67957e-05
0.00505635
8.61126e-05
0.00506867
9.38466e-05
0.00508122
0.000100326
0.00509409
0.000105866
0.00510729
0.000110647
0.00512073
0.000114695
0.00513428
0.000117969
0.00514782
0.000120447
0.00516129
0.000122147
0.00517462
0.000123121
0.00518777
0.000123433
0.0052007
0.000123143
0.00521335
0.000122303
0.00522567
0.000120955
0.00523761
0.000119146
0.00524912
0.000116922
0.00526015
0.000114337
0.00527069
0.00011145
0.00528071
0.000108321
0.00529021
0.000105013
0.00529918
0.000101585
0.00530764
9.80979e-05
0.0053156
9.46043e-05
0.00532309
9.11536e-05
0.00533014
8.77881e-05
0.00533678
8.45436e-05
0.00534305
8.14482e-05
0.005349
7.85233e-05
0.00535465
7.57835e-05
0.00536004
7.32375e-05
0.0053652
7.08888e-05
0.00537017
6.87363e-05
0.00537497
6.67752e-05
0.00537963
6.49972e-05
0.00538416
6.33923e-05
0.00538859
6.19495e-05
0.00539293
6.06575e-05
0.00539719
5.95046e-05
0.00540138
5.84796e-05
0.00540551
5.7571e-05
0.00540959
5.6768e-05
0.00541362
5.60602e-05
0.0054176
5.54382e-05
0.00542154
5.48934e-05
0.00542543
5.44182e-05
0.00542928
5.40059e-05
0.00543309
5.36507e-05
0.00543686
5.33477e-05
0.00544058
5.30927e-05
0.00544426
5.28824e-05
0.0054479
5.27139e-05
0.00545148
5.25852e-05
0.00545502
5.24947e-05
0.0054585
5.24413e-05
0.00546193
5.24244e-05
0.00546531
5.24439e-05
0.00546864
5.24998e-05
0.0054719
5.25927e-05
0.00547511
5.27234e-05
0.00547826
5.28929e-05
0.00548135
5.31024e-05
0.00548437
5.33535e-05
0.00548733
5.3648e-05
0.00549022
5.39876e-05
0.00549304
5.43746e-05
0.00549579
5.48111e-05
0.00549847
5.52998e-05
0.00550108
5.58432e-05
0.00550361
5.64442e-05
0.00550606
5.71059e-05
0.00550843
5.78314e-05
0.00551072
5.86244e-05
0.00551292
5.94884e-05
0.00551504
6.04274e-05
0.00551706
6.14455e-05
0.005519
6.25471e-05
0.00552083
6.3737e-05
0.00552257
6.50199e-05
0.0055242
6.64012e-05
0.00552573
6.78864e-05
0.00552714
6.94815e-05
0.00552845
7.11925e-05
0.00552963
7.30262e-05
0.00553068
7.49895e-05
0.00553161
7.70899e-05
0.00553241
7.93351e-05
0.00553307
8.17336e-05
0.00553358
8.4294e-05
0.00553394
8.70256e-05
0.00553414
8.99384e-05
0.00553417
9.30425e-05
0.00553404
9.63491e-05
0.00553372
9.98696e-05
0.00553321
0.000103616
0.00553251
0.000107602
0.00553159
0.00011184
0.00553046
0.000116346
0.0055291
0.000121133
0.0055275
0.000126217
0.00552564
0.000131616
0.00552352
0.000137347
0.00552111
0.000143427
0.00551841
0.000149876
0.00551539
0.000156713
0.00551203
0.00016396
0.00550832
0.000171637
0.00550423
0.000179768
0.00549974
0.000188374
0.00549483
0.00019748
0.00548945
0.00020711
0.00548359
0.000217289
0.0054772
0.000228042
0.00547025
0.000239396
0.00546269
0.000251377
0.00545447
0.00026401
0.00544554
0.000277321
0.00543583
0.000291336
0.00542528
0.00030608
0.00541382
0.000321575
0.00540135
0.000337845
0.00538777
0.000354909
0.00537298
0.000372785
0.00535684
0.000391486
0.00533922
0.000411022
0.00531996
0.000431399
0.00529886
0.000452617
0.00527574
0.000474667
0.00525033
0.000497535
0.0052224
0.000521195
0.00519163
0.00054561
0.00515769
0.000570733
0.0051202
0.000596497
0.00507874
0.000622823
0.00503284
0.000649606
0.00498196
0.000676723
0.00492552
0.000704024
0.00486289
0.000731329
0.00479335
0.000758423
0.00471615
0.000785055
0.00463046