/*--------------------------------*- C++ -*----------------------------------*\
| =========                 |                                                 |
| \\      /  F ield         | OpenFOAM: The Open Source CFD Toolbox           |
|  \\    /   O peration     | Version:  2306                                  |
|   \\  /    A nd           | Website:  www.openfoam.com                      |
|    \\/     M anipulation  |                                                 |
\*---------------------------------------------------------------------------*/
FoamFile
{
    version     2.0;
    format      ascii;
    arch        "LSB;label=32;scalar=64";
    class       volVectorField;
    location    "0.5";
    object      U;
}
// * * * * * * * * * * * * * * * * * * * * * * * * * * * * * * * * * * * * * //

dimensions      [0 1 -1 0 0 0 0];

internalField   nonuniform List<vector> 
17600
(
(9.80708 0.0850068 0)
(9.62282 0.1805 0)
(9.41196 0.217949 0)
(9.14628 0.225578 0)
(8.83439 0.2251 0)
(8.49836 0.225385 0)
(8.15616 0.226736 0)
(7.81672 0.227129 0)
(7.48269 0.225219 0)
(7.15415 0.220818 0)
(6.83067 0.214448 0)
(6.51243 0.206753 0)
(6.20026 0.19816 0)
(5.89551 0.188852 0)
(5.59966 0.178847 0)
(5.31425 0.168129 0)
(5.04059 0.156697 0)
(4.78013 0.144613 0)
(4.53373 0.131894 0)
(4.3022 0.118628 0)
(4.0862 0.104998 0)
(3.88622 0.0912589 0)
(3.70252 0.0777046 0)
(3.53514 0.0646284 0)
(3.38384 0.0523 0)
(3.24813 0.0409452 0)
(3.12727 0.0307336 0)
(3.02036 0.021771 0)
(2.92636 0.0141002 0)
(2.8441 0.00770651 0)
(2.7724 0.00252948 0)
(2.71005 -0.00152505 0)
(2.65586 -0.00457099 0)
(2.60872 -0.00673291 0)
(2.56756 -0.00813334 0)
(2.53144 -0.00889416 0)
(2.49949 -0.00912493 0)
(2.47098 -0.00895652 0)
(2.44528 -0.0085101 0)
(2.42186 -0.00787957 0)
(2.40026 -0.00713402 0)
(2.3801 -0.00632466 0)
(2.36105 -0.0054899 0)
(2.34286 -0.00465827 0)
(2.32532 -0.00385043 0)
(2.30828 -0.00308079 0)
(2.29161 -0.00235899 0)
(2.27523 -0.00169098 0)
(2.25907 -0.00107995 0)
(2.24308 -0.00052684 0)
(2.22722 -3.0846e-05 0)
(2.21149 0.000410189 0)
(2.19586 0.000799419 0)
(2.18033 0.00114066 0)
(2.1649 0.00143813 0)
(2.14957 0.00169618 0)
(2.13434 0.00191918 0)
(2.11921 0.00211134 0)
(2.10419 0.00227668 0)
(2.08928 0.00241894 0)
(2.07447 0.00254157 0)
(2.05977 0.00264772 0)
(2.04517 0.00274021 0)
(2.03068 0.00282158 0)
(2.01628 0.00289409 0)
(2.00198 0.00295975 0)
(1.98775 0.00302029 0)
(1.9736 0.00307727 0)
(1.95951 0.00313202 0)
(1.94548 0.00318569 0)
(1.93148 0.00323923 0)
(1.91751 0.00329344 0)
(1.90356 0.00334902 0)
(1.8896 0.00340664 0)
(1.87562 0.00346698 0)
(1.8616 0.00353064 0)
(1.84754 0.00359816 0)
(1.8334 0.00367003 0)
(1.81917 0.00374667 0)
(1.80483 0.00382846 0)
(1.79036 0.00391573 0)
(1.77574 0.00400879 0)
(1.76094 0.00410794 0)
(1.74595 0.00421341 0)
(1.73074 0.00432546 0)
(1.71528 0.00444428 0)
(1.69956 0.00457006 0)
(1.68353 0.00470297 0)
(1.66719 0.00484314 0)
(1.65049 0.00499068 0)
(1.63342 0.00514565 0)
(1.61594 0.00530809 0)
(1.59802 0.00547799 0)
(1.57964 0.00565525 0)
(1.56075 0.00583976 0)
(1.54133 0.00603129 0)
(1.52135 0.00622954 0)
(1.50076 0.00643409 0)
(1.47955 0.00664443 0)
(1.45766 0.00685987 0)
(1.43507 0.00707956 0)
(1.41174 0.00730247 0)
(1.38764 0.00752729 0)
(1.36272 0.00775249 0)
(1.33697 0.00797629 0)
(1.31034 0.00819725 0)
(1.2828 0.00841394 0)
(1.25432 0.00862451 0)
(1.22488 0.00882675 0)
(1.19444 0.00901817 0)
(1.16299 0.00919609 0)
(1.13051 0.00935754 0)
(1.09698 0.00949881 0)
(1.06241 0.00961579 0)
(1.02678 0.00970392 0)
(0.990112 0.00975836 0)
(0.952416 0.00977411 0)
(0.913722 0.00974607 0)
(0.874067 0.00966923 0)
(0.833502 0.00953887 0)
(0.792093 0.00935077 0)
(0.749916 0.00910158 0)
(0.707067 0.00878918 0)
(0.663655 0.0084131 0)
(0.619805 0.00797503 0)
(0.575659 0.00747933 0)
(0.531373 0.00693353 0)
(0.487115 0.00634872 0)
(0.443067 0.00573974 0)
(0.399417 0.00512502 0)
(0.356363 0.00452573 0)
(0.3141 0.00396416 0)
(0.272828 0.00346098 0)
(0.232742 0.00303159 0)
(0.194031 0.00268224 0)
(0.156883 0.00240609 0)
(0.121484 0.00218069 0)
(0.0880175 0.00196775 0)
(0.0566653 0.00171851 0)
(0.0275977 0.00138521 0)
(0.000968737 0.000942141 0)
(-0.0231074 0.000373828 0)
(-0.044626 -0.000290102 0)
(-0.0636578 -0.000974417 0)
(-0.0803368 -0.00159027 0)
(-0.0948297 -0.0020618 0)
(-0.107279 -0.00236114 0)
(-0.117761 -0.00254334 0)
(-0.126252 -0.00272029 0)
(-0.132748 -0.00290687 0)
(-0.137354 -0.00303554 0)
(-0.140364 -0.00301841 0)
(-0.142124 -0.0028969 0)
(-0.142845 -0.00278383 0)
(-0.142561 -0.00273793 0)
(-0.141299 -0.00272841 0)
(-0.139237 -0.00266356 0)
(-0.136605 -0.00254244 0)
(-0.13348 -0.00245299 0)
(-0.129744 -0.00247595 0)
(10.0008 0.122279 0)
(10.0676 0.272137 0)
(10.1383 0.342321 0)
(10.1915 0.367553 0)
(10.2161 0.377243 0)
(10.2123 0.385769 0)
(10.1866 0.395783 0)
(10.1458 0.40522 0)
(10.094 0.411969 0)
(10.033 0.415277 0)
(9.96332 0.41546 0)
(9.88493 0.413208 0)
(9.79809 0.40907 0)
(9.70347 0.403325 0)
(9.60187 0.396017 0)
(9.49434 0.387101 0)
(9.38178 0.376511 0)
(9.26523 0.364236 0)
(9.14543 0.350294 0)
(9.02323 0.334783 0)
(8.89946 0.317888 0)
(8.77496 0.299859 0)
(8.65048 0.280991 0)
(8.52675 0.261605 0)
(8.40441 0.242028 0)
(8.28405 0.222583 0)
(8.16616 0.203569 0)
(8.05118 0.185254 0)
(7.93943 0.167861 0)
(7.83121 0.151567 0)
(7.72667 0.13649 0)
(7.62596 0.122704 0)
(7.5291 0.110233 0)
(7.4361 0.0990641 0)
(7.34687 0.0891477 0)
(7.26134 0.0804178 0)
(7.17929 0.0727842 0)
(7.10059 0.0661678 0)
(7.02507 0.0604888 0)
(6.95258 0.0556584 0)
(6.88293 0.0515792 0)
(6.81595 0.0481511 0)
(6.75146 0.045277 0)
(6.68929 0.0428677 0)
(6.62927 0.0408442 0)
(6.57125 0.0391388 0)
(6.51509 0.0376939 0)
(6.46066 0.0364612 0)
(6.40784 0.0354008 0)
(6.35652 0.0344794 0)
(6.3066 0.03367 0)
(6.25798 0.0329506 0)
(6.21059 0.0323037 0)
(6.16435 0.0317155 0)
(6.11917 0.0311753 0)
(6.07501 0.030675 0)
(6.0318 0.0302085 0)
(5.98949 0.0297715 0)
(5.94801 0.0293608 0)
(5.90733 0.0289744 0)
(5.8674 0.0286112 0)
(5.82816 0.0282705 0)
(5.78958 0.0279522 0)
(5.75162 0.0276566 0)
(5.71423 0.0273842 0)
(5.67738 0.0271358 0)
(5.64102 0.026912 0)
(5.60512 0.026714 0)
(5.56965 0.0265427 0)
(5.53455 0.0263991 0)
(5.4998 0.0262844 0)
(5.46536 0.0261993 0)
(5.43118 0.026145 0)
(5.39724 0.0261223 0)
(5.36349 0.0261322 0)
(5.32989 0.0261759 0)
(5.29641 0.0262544 0)
(5.263 0.0263687 0)
(5.22962 0.0265201 0)
(5.19623 0.0267097 0)
(5.16279 0.0269387 0)
(5.12925 0.0272083 0)
(5.09557 0.02752 0)
(5.0617 0.027875 0)
(5.02759 0.0282749 0)
(4.9932 0.0287211 0)
(4.95846 0.0292152 0)
(4.92333 0.0297588 0)
(4.88776 0.0303536 0)
(4.85168 0.0310013 0)
(4.81503 0.0317037 0)
(4.77776 0.0324627 0)
(4.7398 0.0332801 0)
(4.70108 0.0341578 0)
(4.66154 0.0350978 0)
(4.6211 0.0361018 0)
(4.57969 0.0371718 0)
(4.53723 0.0383095 0)
(4.49363 0.0395168 0)
(4.44882 0.0407952 0)
(4.4027 0.0421463 0)
(4.35519 0.0435711 0)
(4.30619 0.0450708 0)
(4.2556 0.0466459 0)
(4.20333 0.0482966 0)
(4.14926 0.0500221 0)
(4.09329 0.0518207 0)
(4.03532 0.0536897 0)
(3.97522 0.0556258 0)
(3.91289 0.0576246 0)
(3.8482 0.0596806 0)
(3.78103 0.0617877 0)
(3.71128 0.0639378 0)
(3.63881 0.0661214 0)
(3.56352 0.0683271 0)
(3.48528 0.0705416 0)
(3.40398 0.0727493 0)
(3.31953 0.074932 0)
(3.23182 0.0770691 0)
(3.14078 0.0791368 0)
(3.04633 0.0811089 0)
(2.94841 0.0829559 0)
(2.84701 0.0846456 0)
(2.7421 0.0861431 0)
(2.63373 0.0874109 0)
(2.52196 0.0884099 0)
(2.40689 0.0890995 0)
(2.28869 0.0894389 0)
(2.16758 0.0893881 0)
(2.04384 0.088909 0)
(1.91785 0.0879675 0)
(1.79004 0.0865352 0)
(1.66095 0.0845925 0)
(1.5312 0.0821309 0)
(1.40148 0.0791555 0)
(1.27258 0.0756843 0)
(1.14533 0.0717518 0)
(1.0206 0.0674114 0)
(0.899236 0.0627431 0)
(0.782085 0.0578485 0)
(0.669881 0.0528765 0)
(0.563293 0.0479734 0)
(0.462854 0.043274 0)
(0.368983 0.0388776 0)
(0.282009 0.0347857 0)
(0.202173 0.0308842 0)
(0.129567 0.0269893 0)
(0.0641794 0.0229841 0)
(0.00616919 0.0189124 0)
(-0.0446207 0.0148861 0)
(-0.0885612 0.0111888 0)
(-0.126362 0.00804642 0)
(-0.158597 0.00551467 0)
(-0.185546 0.00327229 0)
(-0.207443 0.00112205 0)
(-0.224681 -0.000833543 0)
(-0.237886 -0.00232665 0)
(-0.247634 -0.00349733 0)
(-0.254234 -0.00470452 0)
(-0.257773 -0.00617215 0)
(10.0003 0.0614123 0)
(10.0359 0.160323 0)
(10.0898 0.227823 0)
(10.1516 0.268451 0)
(10.2101 0.293286 0)
(10.2592 0.312151 0)
(10.298 0.330013 0)
(10.3292 0.34748 0)
(10.3556 0.363366 0)
(10.3789 0.376572 0)
(10.3993 0.3867 0)
(10.4165 0.39393 0)
(10.4298 0.398644 0)
(10.4388 0.401151 0)
(10.4433 0.401594 0)
(10.4434 0.399983 0)
(10.4391 0.396276 0)
(10.4303 0.390451 0)
(10.4173 0.382571 0)
(10.4001 0.372764 0)
(10.3788 0.361216 0)
(10.3536 0.348159 0)
(10.3247 0.333863 0)
(10.2925 0.318627 0)
(10.2571 0.30276 0)
(10.2189 0.286579 0)
(10.1783 0.270383 0)
(10.1356 0.254451 0)
(10.0911 0.239021 0)
(10.0453 0.224292 0)
(9.99841 0.210408 0)
(9.95077 0.197471 0)
(9.90263 0.185533 0)
(9.85425 0.174611 0)
(9.80578 0.164684 0)
(9.75743 0.155713 0)
(9.70927 0.147638 0)
(9.66144 0.140406 0)
(9.61401 0.133962 0)
(9.56703 0.128241 0)
(9.52052 0.123167 0)
(9.47446 0.118664 0)
(9.42888 0.114652 0)
(9.38376 0.111059 0)
(9.33909 0.107823 0)
(9.29488 0.104888 0)
(9.2511 0.102207 0)
(9.20774 0.0997415 0)
(9.16478 0.0974595 0)
(9.12221 0.0953339 0)
(9.08001 0.0933427 0)
(9.03818 0.0914681 0)
(8.99669 0.0896955 0)
(8.95553 0.0880135 0)
(8.91469 0.0864133 0)
(8.87416 0.0848878 0)
(8.83393 0.0834321 0)
(8.79399 0.0820424 0)
(8.75432 0.080716 0)
(8.71492 0.0794513 0)
(8.67577 0.0782473 0)
(8.63687 0.0771036 0)
(8.59821 0.0760201 0)
(8.55976 0.0749973 0)
(8.52152 0.0740359 0)
(8.48347 0.0731367 0)
(8.4456 0.0723008 0)
(8.4079 0.0715293 0)
(8.37034 0.0708237 0)
(8.33291 0.0701853 0)
(8.2956 0.0696157 0)
(8.25837 0.0691165 0)
(8.22121 0.0686897 0)
(8.1841 0.0683371 0)
(8.14701 0.0680605 0)
(8.10992 0.0678619 0)
(8.0728 0.0677435 0)
(8.03562 0.0677072 0)
(7.99835 0.0677554 0)
(7.96096 0.0678904 0)
(7.92341 0.0681148 0)
(7.88568 0.0684313 0)
(7.84771 0.0688428 0)
(7.80948 0.0693524 0)
(7.77093 0.0699632 0)
(7.73203 0.0706789 0)
(7.69273 0.071503 0)
(7.65298 0.0724395 0)
(7.61272 0.0734926 0)
(7.5719 0.0746667 0)
(7.53046 0.0759663 0)
(7.48835 0.0773963 0)
(7.44548 0.0789619 0)
(7.40181 0.0806684 0)
(7.35725 0.0825215 0)
(7.31173 0.0845268 0)
(7.26517 0.0866904 0)
(7.21748 0.0890186 0)
(7.16858 0.0915178 0)
(7.11836 0.0941943 0)
(7.06673 0.0970551 0)
(7.01359 0.100107 0)
(6.95882 0.103356 0)
(6.90231 0.106809 0)
(6.84393 0.110472 0)
(6.78356 0.114352 0)
(6.72106 0.118452 0)
(6.65627 0.122778 0)
(6.58907 0.127332 0)
(6.51927 0.132118 0)
(6.44673 0.137135 0)
(6.37127 0.142383 0)
(6.2927 0.14786 0)
(6.21083 0.15356 0)
(6.12548 0.159477 0)
(6.03643 0.165599 0)
(5.94348 0.171915 0)
(5.84641 0.178406 0)
(5.74499 0.18505 0)
(5.63899 0.19182 0)
(5.52819 0.198683 0)
(5.41236 0.205599 0)
(5.29125 0.21252 0)
(5.16465 0.219391 0)
(5.03233 0.226147 0)
(4.89409 0.232712 0)
(4.74973 0.239002 0)
(4.59909 0.244917 0)
(4.44203 0.250349 0)
(4.27846 0.255174 0)
(4.10832 0.259254 0)
(3.93165 0.262442 0)
(3.74854 0.264576 0)
(3.55919 0.265489 0)
(3.3639 0.265013 0)
(3.16311 0.262988 0)
(2.9574 0.259269 0)
(2.74758 0.253739 0)
(2.5346 0.246326 0)
(2.31971 0.237017 0)
(2.10437 0.225877 0)
(1.8903 0.213054 0)
(1.67951 0.198787 0)
(1.47414 0.183397 0)
(1.27645 0.167262 0)
(1.08861 0.150797 0)
(0.912515 0.134437 0)
(0.749547 0.118644 0)
(0.600473 0.103977 0)
(0.465125 0.0907721 0)
(0.34314 0.079018 0)
(0.234158 0.0682241 0)
(0.137814 0.0578254 0)
(0.0539624 0.0476276 0)
(-0.0180136 0.0377126 0)
(-0.0791591 0.0286341 0)
(-0.130862 0.0208769 0)
(-0.174029 0.0142911 0)
(-0.209218 0.00821789 0)
(-0.237093 0.00220715 0)
(10.0002 0.0417813 0)
(10.0198 0.117276 0)
(10.0537 0.178916 0)
(10.0983 0.224503 0)
(10.1468 0.25657 0)
(10.1935 0.280049 0)
(10.2355 0.29931 0)
(10.2732 0.316686 0)
(10.3082 0.33256 0)
(10.3422 0.346428 0)
(10.376 0.357802 0)
(10.4096 0.366544 0)
(10.4428 0.372811 0)
(10.4748 0.376857 0)
(10.5055 0.378878 0)
(10.5345 0.378974 0)
(10.5616 0.377182 0)
(10.5867 0.37353 0)
(10.6096 0.368083 0)
(10.6301 0.36095 0)
(10.6482 0.352276 0)
(10.6636 0.342244 0)
(10.6764 0.331065 0)
(10.6863 0.318974 0)
(10.6935 0.306222 0)
(10.698 0.29306 0)
(10.6999 0.279738 0)
(10.6993 0.266483 0)
(10.6964 0.253504 0)
(10.6914 0.240973 0)
(10.6846 0.22903 0)
(10.6761 0.217779 0)
(10.6661 0.207291 0)
(10.6549 0.197602 0)
(10.6427 0.188728 0)
(10.6295 0.180657 0)
(10.6156 0.173366 0)
(10.6011 0.166807 0)
(10.586 0.160921 0)
(10.5705 0.155644 0)
(10.5546 0.150918 0)
(10.5383 0.146682 0)
(10.5217 0.142879 0)
(10.5048 0.139459 0)
(10.4876 0.136371 0)
(10.4701 0.133573 0)
(10.4524 0.131026 0)
(10.4344 0.128695 0)
(10.4162 0.126552 0)
(10.3978 0.12457 0)
(10.3791 0.122728 0)
(10.3602 0.121008 0)
(10.341 0.119393 0)
(10.3216 0.117872 0)
(10.302 0.116434 0)
(10.2821 0.115072 0)
(10.262 0.113779 0)
(10.2416 0.11255 0)
(10.221 0.111383 0)
(10.2001 0.110274 0)
(10.179 0.109224 0)
(10.1576 0.10823 0)
(10.136 0.107295 0)
(10.1142 0.106417 0)
(10.0921 0.1056 0)
(10.0698 0.104843 0)
(10.0472 0.104149 0)
(10.0244 0.103521 0)
(10.0013 0.10296 0)
(9.97795 0.10247 0)
(9.95435 0.102052 0)
(9.93048 0.101711 0)
(9.90634 0.10145 0)
(9.8819 0.101272 0)
(9.85717 0.101181 0)
(9.83213 0.10118 0)
(9.80677 0.101275 0)
(9.78107 0.101468 0)
(9.75502 0.101764 0)
(9.72859 0.102167 0)
(9.70178 0.102683 0)
(9.67455 0.103316 0)
(9.64689 0.104071 0)
(9.61877 0.104954 0)
(9.59016 0.10597 0)
(9.56103 0.107126 0)
(9.53135 0.108428 0)
(9.50108 0.109883 0)
(9.47019 0.111498 0)
(9.43863 0.113281 0)
(9.40637 0.115239 0)
(9.37335 0.11738 0)
(9.33952 0.119714 0)
(9.30484 0.122249 0)
(9.26924 0.124995 0)
(9.23266 0.127963 0)
(9.19503 0.131161 0)
(9.1563 0.134602 0)
(9.11637 0.138297 0)
(9.07517 0.142257 0)
(9.03262 0.146494 0)
(8.98863 0.151021 0)
(8.94308 0.15585 0)
(8.89589 0.160994 0)
(8.84694 0.166466 0)
(8.79611 0.17228 0)
(8.74327 0.178448 0)
(8.6883 0.184983 0)
(8.63104 0.191899 0)
(8.57134 0.199207 0)
(8.50904 0.206918 0)
(8.44397 0.215042 0)
(8.37594 0.223588 0)
(8.30475 0.232562 0)
(8.2302 0.24197 0)
(8.15207 0.251814 0)
(8.07011 0.262092 0)
(7.98409 0.272801 0)
(7.89373 0.283931 0)
(7.79876 0.295469 0)
(7.69888 0.307394 0)
(7.59379 0.31968 0)
(7.48316 0.332291 0)
(7.36665 0.345184 0)
(7.24391 0.358302 0)
(7.11457 0.37158 0)
(6.97825 0.384937 0)
(6.83456 0.398278 0)
(6.68311 0.411491 0)
(6.5235 0.424446 0)
(6.35534 0.436993 0)
(6.17824 0.44896 0)
(5.99183 0.460153 0)
(5.79579 0.470351 0)
(5.58982 0.479306 0)
(5.37368 0.486743 0)
(5.14721 0.492367 0)
(4.91035 0.495865 0)
(4.66316 0.496909 0)
(4.40588 0.495161 0)
(4.13895 0.490282 0)
(3.86307 0.481944 0)
(3.57926 0.469849 0)
(3.28888 0.453774 0)
(2.99376 0.433606 0)
(2.69623 0.409398 0)
(2.39922 0.381431 0)
(2.10623 0.350255 0)
(1.82133 0.316704 0)
(1.54886 0.281941 0)
(1.29318 0.247294 0)
(1.05814 0.214094 0)
(0.846432 0.183378 0)
(0.659123 0.156129 0)
(0.494906 0.132694 0)
(0.351513 0.112528 0)
(0.226719 0.0942098 0)
(0.119576 0.0767845 0)
(0.0290537 0.0599137 0)
(-0.0466915 0.0438642 0)
(10.0001 0.0316628 0)
(10.0128 0.0917414 0)
(10.036 0.145038 0)
(10.0682 0.188699 0)
(10.1059 0.222283 0)
(10.1451 0.247719 0)
(10.1829 0.267815 0)
(10.2183 0.284869 0)
(10.2517 0.299983 0)
(10.2843 0.313285 0)
(10.3168 0.32452 0)
(10.3498 0.333476 0)
(10.383 0.340137 0)
(10.4162 0.344639 0)
(10.449 0.34716 0)
(10.4811 0.347851 0)
(10.5124 0.346813 0)
(10.5427 0.344126 0)
(10.5719 0.339867 0)
(10.5998 0.334135 0)
(10.6264 0.32706 0)
(10.6514 0.318796 0)
(10.6746 0.30952 0)
(10.6961 0.299428 0)
(10.7157 0.288729 0)
(10.7334 0.277632 0)
(10.7492 0.266344 0)
(10.7632 0.255059 0)
(10.7754 0.243953 0)
(10.7859 0.233176 0)
(10.7948 0.222853 0)
(10.8024 0.213081 0)
(10.8087 0.20393 0)
(10.8139 0.195442 0)
(10.8182 0.18764 0)
(10.8216 0.180523 0)
(10.8242 0.174073 0)
(10.8263 0.168255 0)
(10.8278 0.163023 0)
(10.8289 0.158329 0)
(10.8295 0.154125 0)
(10.8297 0.150365 0)
(10.8295 0.147006 0)
(10.8291 0.144005 0)
(10.8283 0.141324 0)
(10.8273 0.138923 0)
(10.8259 0.136768 0)
(10.8243 0.134827 0)
(10.8224 0.133072 0)
(10.8203 0.131478 0)
(10.8178 0.130024 0)
(10.8151 0.128692 0)
(10.8121 0.127467 0)
(10.8088 0.126335 0)
(10.8052 0.125287 0)
(10.8013 0.124314 0)
(10.797 0.123409 0)
(10.7925 0.122569 0)
(10.7877 0.121789 0)
(10.7825 0.121067 0)
(10.777 0.120403 0)
(10.7712 0.119795 0)
(10.7651 0.119243 0)
(10.7586 0.11875 0)
(10.7519 0.118317 0)
(10.7447 0.117945 0)
(10.7373 0.117636 0)
(10.7294 0.117394 0)
(10.7213 0.117222 0)
(10.7128 0.117123 0)
(10.7039 0.1171 0)
(10.6947 0.117157 0)
(10.6851 0.117299 0)
(10.6751 0.11753 0)
(10.6648 0.117855 0)
(10.6541 0.118278 0)
(10.6429 0.118804 0)
(10.6314 0.119439 0)
(10.6194 0.120189 0)
(10.6071 0.121059 0)
(10.5942 0.122056 0)
(10.5809 0.123186 0)
(10.5672 0.124456 0)
(10.5529 0.125873 0)
(10.5382 0.127446 0)
(10.5229 0.129182 0)
(10.507 0.13109 0)
(10.4906 0.133178 0)
(10.4735 0.135457 0)
(10.4559 0.137937 0)
(10.4375 0.140628 0)
(10.4185 0.143541 0)
(10.3987 0.146688 0)
(10.3781 0.150082 0)
(10.3568 0.153735 0)
(10.3345 0.157661 0)
(10.3114 0.161874 0)
(10.2873 0.16639 0)
(10.2622 0.171224 0)
(10.236 0.176392 0)
(10.2086 0.181912 0)
(10.18 0.1878 0)
(10.1502 0.194076 0)
(10.119 0.200758 0)
(10.0863 0.207866 0)
(10.052 0.215419 0)
(10.0161 0.223439 0)
(9.97849 0.231945 0)
(9.93897 0.24096 0)
(9.89744 0.250504 0)
(9.85377 0.260598 0)
(9.80783 0.271264 0)
(9.75944 0.282521 0)
(9.70846 0.294388 0)
(9.65469 0.306885 0)
(9.59795 0.320027 0)
(9.53802 0.333828 0)
(9.47468 0.348301 0)
(9.40769 0.363454 0)
(9.33679 0.37929 0)
(9.2617 0.39581 0)
(9.18211 0.413006 0)
(9.09772 0.430865 0)
(9.00816 0.449366 0)
(8.91308 0.468476 0)
(8.81207 0.488153 0)
(8.70471 0.508342 0)
(8.59055 0.528973 0)
(8.4691 0.549959 0)
(8.33985 0.571195 0)
(8.20228 0.592552 0)
(8.0558 0.613881 0)
(7.89982 0.635005 0)
(7.73373 0.655716 0)
(7.55688 0.67577 0)
(7.36862 0.694891 0)
(7.1683 0.712762 0)
(6.95526 0.729033 0)
(6.72887 0.743317 0)
(6.48857 0.755191 0)
(6.23382 0.764197 0)
(5.96423 0.769845 0)
(5.67957 0.771615 0)
(5.37976 0.768955 0)
(5.06501 0.761302 0)
(4.73584 0.748108 0)
(4.39321 0.728852 0)
(4.03859 0.703083 0)
(3.67405 0.670469 0)
(3.30246 0.630916 0)
(2.92759 0.584665 0)
(2.55435 0.532437 0)
(2.18889 0.475585 0)
(1.83851 0.416134 0)
(1.51094 0.356819 0)
(1.21329 0.300668 0)
(0.95059 0.250193 0)
(0.724807 0.20708 0)
(0.533526 0.171503 0)
(0.371533 0.141521 0)
(10.0001 0.0253328 0)
(10.0092 0.0742934 0)
(10.0261 0.11944 0)
(10.0502 0.158589 0)
(10.0797 0.190696 0)
(10.1121 0.216193 0)
(10.1451 0.236532 0)
(10.1773 0.253356 0)
(10.2083 0.267847 0)
(10.2386 0.280504 0)
(10.2688 0.291334 0)
(10.2993 0.300189 0)
(10.3301 0.306984 0)
(10.3611 0.311758 0)
(10.3921 0.31464 0)
(10.4226 0.315783 0)
(10.4527 0.315322 0)
(10.482 0.313365 0)
(10.5106 0.310006 0)
(10.5383 0.305342 0)
(10.5649 0.299487 0)
(10.5905 0.292573 0)
(10.6148 0.284752 0)
(10.6378 0.276192 0)
(10.6594 0.267069 0)
(10.6795 0.257561 0)
(10.6982 0.247845 0)
(10.7155 0.238088 0)
(10.7314 0.22844 0)
(10.746 0.219035 0)
(10.7594 0.209985 0)
(10.7716 0.201377 0)
(10.7829 0.193279 0)
(10.7933 0.185734 0)
(10.8029 0.178766 0)
(10.8119 0.17238 0)
(10.8202 0.166566 0)
(10.8281 0.1613 0)
(10.8356 0.15655 0)
(10.8426 0.15228 0)
(10.8494 0.148454 0)
(10.8559 0.145035 0)
(10.8621 0.141989 0)
(10.8682 0.139279 0)
(10.874 0.136872 0)
(10.8796 0.134734 0)
(10.8851 0.132834 0)
(10.8904 0.131143 0)
(10.8955 0.129636 0)
(10.9005 0.12829 0)
(10.9053 0.127085 0)
(10.9099 0.126004 0)
(10.9143 0.125033 0)
(10.9185 0.124159 0)
(10.9226 0.123372 0)
(10.9264 0.122666 0)
(10.9301 0.122033 0)
(10.9335 0.121468 0)
(10.9367 0.120969 0)
(10.9397 0.120533 0)
(10.9425 0.120159 0)
(10.945 0.119846 0)
(10.9473 0.119595 0)
(10.9494 0.119407 0)
(10.9512 0.119283 0)
(10.9527 0.119226 0)
(10.954 0.119237 0)
(10.955 0.119321 0)
(10.9558 0.11948 0)
(10.9562 0.119718 0)
(10.9564 0.120038 0)
(10.9564 0.120446 0)
(10.956 0.120945 0)
(10.9553 0.121541 0)
(10.9543 0.122237 0)
(10.9531 0.123041 0)
(10.9514 0.123957 0)
(10.9495 0.124992 0)
(10.9473 0.126152 0)
(10.9446 0.127443 0)
(10.9417 0.128874 0)
(10.9383 0.130451 0)
(10.9346 0.132182 0)
(10.9305 0.134077 0)
(10.926 0.136144 0)
(10.9211 0.138392 0)
(10.9157 0.140832 0)
(10.9099 0.143473 0)
(10.9036 0.146329 0)
(10.8968 0.149409 0)
(10.8895 0.152727 0)
(10.8817 0.156297 0)
(10.8733 0.160131 0)
(10.8643 0.164245 0)
(10.8547 0.168654 0)
(10.8445 0.173375 0)
(10.8335 0.178425 0)
(10.8219 0.183821 0)
(10.8095 0.189584 0)
(10.7962 0.195733 0)
(10.7822 0.202289 0)
(10.7672 0.209273 0)
(10.7513 0.21671 0)
(10.7344 0.224622 0)
(10.7164 0.233034 0)
(10.6973 0.241973 0)
(10.677 0.251464 0)
(10.6555 0.261537 0)
(10.6325 0.272218 0)
(10.6081 0.283537 0)
(10.5822 0.295524 0)
(10.5546 0.308209 0)
(10.5253 0.321623 0)
(10.494 0.335795 0)
(10.4608 0.350755 0)
(10.4254 0.366534 0)
(10.3876 0.383159 0)
(10.3474 0.400657 0)
(10.3044 0.419054 0)
(10.2586 0.43837 0)
(10.2097 0.458625 0)
(10.1574 0.479832 0)
(10.1014 0.502002 0)
(10.0416 0.525136 0)
(9.97756 0.549228 0)
(9.90894 0.574265 0)
(9.83537 0.60022 0)
(9.75644 0.627056 0)
(9.67171 0.654717 0)
(9.58069 0.683133 0)
(9.48285 0.712212 0)
(9.37761 0.741841 0)
(9.26435 0.771879 0)
(9.14239 0.802158 0)
(9.01101 0.83248 0)
(8.86941 0.862614 0)
(8.71677 0.892291 0)
(8.5522 0.9212 0)
(8.37477 0.948992 0)
(8.18351 0.975268 0)
(7.97743 0.999584 0)
(7.75549 1.02144 0)
(7.5167 1.04029 0)
(7.26006 1.05551 0)
(6.98465 1.06641 0)
(6.68965 1.07223 0)
(6.37443 1.07221 0)
(6.03855 1.0655 0)
(5.68198 1.0513 0)
(5.30506 1.02879 0)
(4.90877 0.997239 0)
(4.49482 0.95602 0)
(4.06593 0.904691 0)
(3.62593 0.843085 0)
(3.18004 0.771557 0)
(2.7352 0.691257 0)
(2.30039 0.604496 0)
(1.88676 0.5149 0)
(1.50658 0.427431 0)
(1.17061 0.347525 0)
(10.0001 0.0208371 0)
(10.007 0.0615063 0)
(10.02 0.0997295 0)
(10.0387 0.134104 0)
(10.0623 0.163618 0)
(10.0892 0.188087 0)
(10.1177 0.2081 0)
(10.1466 0.224643 0)
(10.1751 0.238662 0)
(10.2033 0.250751 0)
(10.2314 0.261112 0)
(10.2596 0.269717 0)
(10.2882 0.276493 0)
(10.317 0.281434 0)
(10.3459 0.284615 0)
(10.3745 0.286164 0)
(10.4028 0.286216 0)
(10.4305 0.284892 0)
(10.4575 0.282296 0)
(10.4839 0.278526 0)
(10.5093 0.273685 0)
(10.5339 0.267892 0)
(10.5574 0.261276 0)
(10.5798 0.25398 0)
(10.6011 0.246156 0)
(10.6211 0.237957 0)
(10.64 0.229536 0)
(10.6576 0.221034 0)
(10.6741 0.212584 0)
(10.6895 0.204304 0)
(10.7038 0.196293 0)
(10.7172 0.188632 0)
(10.7298 0.181384 0)
(10.7415 0.174591 0)
(10.7526 0.168281 0)
(10.7631 0.162462 0)
(10.7731 0.157133 0)
(10.7827 0.15228 0)
(10.7918 0.147883 0)
(10.8007 0.143915 0)
(10.8093 0.140349 0)
(10.8177 0.137157 0)
(10.8259 0.134308 0)
(10.8339 0.131772 0)
(10.8417 0.129522 0)
(10.8495 0.127527 0)
(10.8571 0.125761 0)
(10.8646 0.124198 0)
(10.872 0.122815 0)
(10.8793 0.121592 0)
(10.8865 0.120511 0)
(10.8935 0.119556 0)
(10.9005 0.118714 0)
(10.9074 0.117974 0)
(10.9141 0.117327 0)
(10.9208 0.116765 0)
(10.9273 0.116283 0)
(10.9336 0.115874 0)
(10.9399 0.115538 0)
(10.946 0.11527 0)
(10.9519 0.11507 0)
(10.9578 0.114937 0)
(10.9634 0.114872 0)
(10.9689 0.114876 0)
(10.9742 0.11495 0)
(10.9794 0.115096 0)
(10.9844 0.115317 0)
(10.9892 0.115615 0)
(10.9939 0.115995 0)
(10.9983 0.11646 0)
(11.0026 0.117014 0)
(11.0067 0.117661 0)
(11.0106 0.118406 0)
(11.0143 0.119254 0)
(11.0177 0.12021 0)
(11.021 0.12128 0)
(11.024 0.122471 0)
(11.0268 0.123788 0)
(11.0294 0.125239 0)
(11.0317 0.126831 0)
(11.0338 0.128572 0)
(11.0356 0.130469 0)
(11.0372 0.132532 0)
(11.0385 0.13477 0)
(11.0395 0.137192 0)
(11.0402 0.13981 0)
(11.0406 0.142633 0)
(11.0407 0.145674 0)
(11.0404 0.148945 0)
(11.0398 0.152458 0)
(11.0389 0.156228 0)
(11.0375 0.16027 0)
(11.0358 0.164597 0)
(11.0337 0.169228 0)
(11.0312 0.174178 0)
(11.0282 0.179467 0)
(11.0247 0.185114 0)
(11.0207 0.191137 0)
(11.0163 0.19756 0)
(11.0112 0.204404 0)
(11.0056 0.211693 0)
(10.9995 0.219452 0)
(10.9926 0.227706 0)
(10.9851 0.236483 0)
(10.9769 0.245812 0)
(10.9679 0.255722 0)
(10.9581 0.266245 0)
(10.9475 0.277413 0)
(10.936 0.289258 0)
(10.9235 0.301818 0)
(10.91 0.315126 0)
(10.8954 0.329221 0)
(10.8797 0.34414 0)
(10.8627 0.359922 0)
(10.8444 0.376606 0)
(10.8246 0.394232 0)
(10.8034 0.412839 0)
(10.7804 0.432466 0)
(10.7558 0.453152 0)
(10.7292 0.474934 0)
(10.7005 0.497847 0)
(10.6696 0.521924 0)
(10.6363 0.547195 0)
(10.6004 0.573684 0)
(10.5616 0.601411 0)
(10.5197 0.630389 0)
(10.4744 0.660622 0)
(10.4254 0.692105 0)
(10.3724 0.724821 0)
(10.3149 0.758739 0)
(10.2525 0.79381 0)
(10.1848 0.829968 0)
(10.1112 0.867126 0)
(10.0311 0.90517 0)
(9.94388 0.943963 0)
(9.84881 0.983336 0)
(9.7451 1.02308 0)
(9.63188 1.06296 0)
(9.5082 1.10269 0)
(9.37302 1.14192 0)
(9.22523 1.18028 0)
(9.06363 1.21731 0)
(8.88693 1.25251 0)
(8.69377 1.28529 0)
(8.48273 1.31501 0)
(8.25237 1.34094 0)
(8.00121 1.36229 0)
(7.72778 1.37817 0)
(7.43073 1.38765 0)
(7.10877 1.38968 0)
(6.76089 1.38317 0)
(6.38637 1.36696 0)
(5.985 1.33988 0)
(5.55723 1.30078 0)
(5.10431 1.24864 0)
(4.6287 1.18271 0)
(4.13434 1.10262 0)
(3.62705 1.00856 0)
(3.11483 0.901594 0)
(2.60844 0.7842 0)
(10.0001 0.0174421 0)
(10.0056 0.0516771 0)
(10.016 0.0842465 0)
(10.0311 0.11422 0)
(10.0503 0.140791 0)
(10.0729 0.163586 0)
(10.0976 0.182741 0)
(10.1233 0.198761 0)
(10.1494 0.212284 0)
(10.1755 0.223832 0)
(10.2017 0.233689 0)
(10.2281 0.241935 0)
(10.2547 0.248551 0)
(10.2816 0.253525 0)
(10.3085 0.256899 0)
(10.3354 0.258765 0)
(10.3621 0.259243 0)
(10.3883 0.258448 0)
(10.4139 0.256489 0)
(10.4389 0.253465 0)
(10.4632 0.249473 0)
(10.4867 0.244618 0)
(10.5093 0.239014 0)
(10.5309 0.232786 0)
(10.5516 0.226063 0)
(10.5712 0.218979 0)
(10.5897 0.211663 0)
(10.6072 0.20424 0)
(10.6236 0.196826 0)
(10.6391 0.189523 0)
(10.6537 0.182421 0)
(10.6674 0.175592 0)
(10.6803 0.169094 0)
(10.6925 0.16297 0)
(10.704 0.157247 0)
(10.715 0.15194 0)
(10.7255 0.147051 0)
(10.7356 0.142576 0)
(10.7454 0.138501 0)
(10.7548 0.13481 0)
(10.764 0.13148 0)
(10.7729 0.128489 0)
(10.7816 0.125813 0)
(10.7902 0.123426 0)
(10.7986 0.121304 0)
(10.807 0.119422 0)
(10.8152 0.117758 0)
(10.8232 0.116288 0)
(10.8312 0.114992 0)
(10.8392 0.113854 0)
(10.847 0.112856 0)
(10.8547 0.111984 0)
(10.8624 0.111228 0)
(10.87 0.110575 0)
(10.8775 0.110019 0)
(10.8849 0.109551 0)
(10.8922 0.109167 0)
(10.8994 0.108861 0)
(10.9065 0.108631 0)
(10.9135 0.108474 0)
(10.9205 0.108389 0)
(10.9273 0.108376 0)
(10.934 0.108435 0)
(10.9406 0.108567 0)
(10.947 0.108773 0)
(10.9534 0.109056 0)
(10.9596 0.109418 0)
(10.9657 0.109861 0)
(10.9717 0.11039 0)
(10.9776 0.111008 0)
(10.9833 0.11172 0)
(10.9889 0.112529 0)
(10.9943 0.113441 0)
(10.9996 0.11446 0)
(11.0047 0.115593 0)
(11.0097 0.116845 0)
(11.0145 0.118223 0)
(11.0192 0.119733 0)
(11.0237 0.121383 0)
(11.028 0.123181 0)
(11.0321 0.125134 0)
(11.0361 0.127251 0)
(11.0399 0.129542 0)
(11.0434 0.132016 0)
(11.0468 0.134683 0)
(11.05 0.137554 0)
(11.0529 0.140641 0)
(11.0556 0.143956 0)
(11.0581 0.147512 0)
(11.0604 0.151322 0)
(11.0623 0.155402 0)
(11.0641 0.159766 0)
(11.0655 0.164431 0)
(11.0667 0.169414 0)
(11.0676 0.174733 0)
(11.0681 0.180408 0)
(11.0684 0.186458 0)
(11.0683 0.192906 0)
(11.0678 0.199774 0)
(11.067 0.207085 0)
(11.0658 0.214866 0)
(11.0642 0.223142 0)
(11.0621 0.231941 0)
(11.0596 0.241293 0)
(11.0567 0.251229 0)
(11.0532 0.26178 0)
(11.0493 0.27298 0)
(11.0447 0.284865 0)
(11.0396 0.297472 0)
(11.0339 0.310839 0)
(11.0276 0.325005 0)
(11.0205 0.340013 0)
(11.0127 0.355905 0)
(11.0042 0.372724 0)
(10.9948 0.390517 0)
(10.9845 0.40933 0)
(10.9733 0.429209 0)
(10.9611 0.450203 0)
(10.9477 0.472359 0)
(10.9333 0.495725 0)
(10.9175 0.520349 0)
(10.9004 0.546278 0)
(10.8818 0.573556 0)
(10.8616 0.602225 0)
(10.8396 0.632326 0)
(10.8157 0.663893 0)
(10.7897 0.696956 0)
(10.7614 0.731538 0)
(10.7306 0.767654 0)
(10.6969 0.805309 0)
(10.6601 0.844496 0)
(10.6198 0.885195 0)
(10.5757 0.927369 0)
(10.5273 0.970962 0)
(10.4741 1.0159 0)
(10.4156 1.06208 0)
(10.351 1.10937 0)
(10.2798 1.15761 0)
(10.2011 1.20659 0)
(10.114 1.25608 0)
(10.0174 1.30577 0)
(9.91045 1.35531 0)
(9.79173 1.4043 0)
(9.65995 1.45225 0)
(9.51363 1.49861 0)
(9.35119 1.54274 0)
(9.17092 1.58392 0)
(8.971 1.6213 0)
(8.74951 1.65398 0)
(8.50447 1.68092 0)
(8.23388 1.70099 0)
(7.93577 1.71292 0)
(7.60828 1.71538 0)
(7.24976 1.70692 0)
(6.85885 1.68602 0)
(6.43479 1.65109 0)
(5.97754 1.60063 0)
(5.48815 1.53318 0)
(4.96893 1.44759 0)
(4.42421 1.34327 0)
(10 0.0147647 0)
(10.0046 0.0438387 0)
(10.0132 0.071749 0)
(10.0257 0.097809 0)
(10.0419 0.121428 0)
(10.0611 0.142215 0)
(10.0826 0.160097 0)
(10.1056 0.175288 0)
(10.1293 0.188166 0)
(10.1535 0.199121 0)
(10.1779 0.208431 0)
(10.2025 0.216234 0)
(10.2274 0.222569 0)
(10.2526 0.227444 0)
(10.278 0.230885 0)
(10.3033 0.232959 0)
(10.3285 0.23376 0)
(10.3533 0.233391 0)
(10.3778 0.231956 0)
(10.4016 0.229552 0)
(10.4249 0.226273 0)
(10.4474 0.222215 0)
(10.4692 0.217478 0)
(10.4901 0.21217 0)
(10.5102 0.206405 0)
(10.5293 0.200295 0)
(10.5475 0.193955 0)
(10.5648 0.187491 0)
(10.5812 0.181004 0)
(10.5966 0.174584 0)
(10.6112 0.16831 0)
(10.6251 0.162248 0)
(10.6382 0.156451 0)
(10.6506 0.150959 0)
(10.6625 0.145801 0)
(10.6737 0.140994 0)
(10.6846 0.136544 0)
(10.695 0.132452 0)
(10.705 0.128712 0)
(10.7147 0.12531 0)
(10.7241 0.122231 0)
(10.7333 0.119457 0)
(10.7423 0.116969 0)
(10.7511 0.114745 0)
(10.7598 0.112765 0)
(10.7683 0.111008 0)
(10.7767 0.109454 0)
(10.7849 0.108085 0)
(10.7931 0.106883 0)
(10.8012 0.105832 0)
(10.8092 0.104918 0)
(10.8171 0.104129 0)
(10.8249 0.103454 0)
(10.8327 0.102883 0)
(10.8403 0.102409 0)
(10.8479 0.102025 0)
(10.8554 0.101726 0)
(10.8628 0.101508 0)
(10.8701 0.101368 0)
(10.8774 0.101303 0)
(10.8845 0.101314 0)
(10.8916 0.101398 0)
(10.8985 0.101557 0)
(10.9054 0.101791 0)
(10.9122 0.102102 0)
(10.9188 0.102492 0)
(10.9254 0.102964 0)
(10.9319 0.103521 0)
(10.9382 0.104166 0)
(10.9445 0.104902 0)
(10.9506 0.105735 0)
(10.9566 0.106668 0)
(10.9625 0.107707 0)
(10.9683 0.108857 0)
(10.974 0.110124 0)
(10.9795 0.111513 0)
(10.985 0.113032 0)
(10.9902 0.114688 0)
(10.9954 0.116488 0)
(11.0004 0.118439 0)
(11.0053 0.120551 0)
(11.01 0.122832 0)
(11.0146 0.125292 0)
(11.019 0.12794 0)
(11.0232 0.130788 0)
(11.0273 0.133846 0)
(11.0312 0.137126 0)
(11.035 0.140641 0)
(11.0386 0.144405 0)