/*--------------------------------*- C++ -*----------------------------------*\
| =========                 |                                                 |
| \\      /  F ield         | OpenFOAM: The Open Source CFD Toolbox           |
|  \\    /   O peration     | Version:  2306                                  |
|   \\  /    A nd           | Website:  www.openfoam.com                      |
|    \\/     M anipulation  |                                                 |
\*---------------------------------------------------------------------------*/
FoamFile
{
    version     2.0;
    format      ascii;
    arch        "LSB;label=32;scalar=64";
    class       volScalarField;
    location    "0.15";
    object      p;
}
// * * * * * * * * * * * * * * * * * * * * * * * * * * * * * * * * * * * * * //

dimensions      [0 2 -2 0 0 0 0];

internalField   nonuniform List<scalar> 
4400
(
373.61
372.595
371.687
371.015
370.566
370.259
370.014
369.785
369.552
369.311
369.065
368.817
368.57
368.324
368.08
367.836
367.593
367.349
367.105
366.86
366.615
366.37
366.126
365.882
365.639
365.398
365.158
364.922
364.688
364.458
364.231
364.01
363.794
363.584
363.381
363.185
362.998
362.819
362.651
362.493
362.347
362.213
362.091
361.984
361.891
361.814
361.751
361.705
361.675
361.661
361.664
361.682
361.714
361.758
361.812
361.872
361.934
361.991
362.035
362.058
362.051
362.002
361.902
361.744
361.524
361.246
360.968
360.861
361.129
361.762
362.61
363.256
363.296
362.797
362.495
362.457
362.642
362.142
361.393
360.933
372.148
371.806
371.373
370.932
370.54
370.216
369.947
369.712
369.488
369.263
369.032
368.795
368.554
368.311
368.068
367.825
367.582
367.339
367.096
366.853
366.609
366.365
366.122
365.879
365.637
365.396
365.158
364.921
364.688
364.458
364.231
364.01
363.794
363.584
363.38
363.184
362.995
362.816
362.646
362.486
362.338
362.201
362.076
361.966
361.869
361.787
361.72
361.669
361.634
361.615
361.612
361.624
361.651
361.688
361.737
361.792
361.849
361.903
361.944
361.969
361.962
361.918
361.823
361.67
361.449
361.18
360.92
360.842
361.192
362.058
363.244
364.249
363.827
362.158
361.371
361.626
362.243
362.36
361.783
361.173
371.602
371.437
371.179
370.861
370.527
370.213
369.931
369.682
369.452
369.231
369.007
368.778
368.543
368.303
368.061
367.818
367.576
367.333
367.09
366.848
366.606
366.363
366.12
365.878
365.636
365.396
365.158
364.921
364.688
364.458
364.231
364.009
363.792
363.581
363.375
363.176
362.985
362.802
362.628
362.463
362.308
362.165
362.032
361.912
361.804
361.71
361.628
361.561
361.508
361.468
361.443
361.43
361.43
361.439
361.457
361.479
361.504
361.524
361.535
361.529
361.502
361.442
361.346
361.214
361.057
360.915
360.865
361.014
361.427
362.062
362.753
363.133
362.834
362.078
362.067
362.952
364.146
363.578
361.69
360.751
371.187
371.087
370.913
370.68
370.415
370.142
369.879
369.634
369.404
369.183
368.964
368.741
368.514
368.28
368.042
367.803
367.562
367.32
367.079
366.838
366.596
366.354
366.112
365.871
365.631
365.391
365.152
364.916
364.683
364.452
364.225
364.001
363.782
363.569
363.361
363.158
362.963
362.775
362.594
362.423
362.26
362.106
361.963
361.83
361.708
361.597
361.498
361.41
361.334
361.269
361.216
361.172
361.138
361.11
361.089
361.069
361.05
361.025
360.992
360.945
360.881
360.793
360.691
360.572
360.468
360.407
360.435
360.59
360.85
361.207
361.564
361.829
361.932
361.94
362.072
362.279
362.402
362.198
362.145
362.225
370.887
370.818
370.693
370.519
370.307
370.074
369.836
369.602
369.375
369.154
368.935
368.716
368.491
368.262
368.029
367.793
367.553
367.313
367.072
366.832
366.59
366.348
366.107
365.866
365.626
365.386
365.147
364.91
364.676
364.444
364.215
363.989
363.768
363.552
363.34
363.133
362.933
362.739
362.552
362.373
362.201
362.037
361.882
361.736
361.598
361.471
361.351
361.244
361.142
361.052
360.968
360.893
360.822
360.757
360.693
360.629
360.564
360.489
360.41
360.315
360.209
360.091
359.962
359.84
359.734
359.668
359.658
359.707
359.824
359.993
360.197
360.403
360.596
360.712
360.792
360.876
361.013
361.197
361.191
360.593
370.669
370.617
370.52
370.382
370.207
370.006
369.791
369.57
369.348
369.128
368.91
368.692
368.47
368.243
368.014
367.78
367.543
367.304
367.064
366.824
366.582
366.34
366.099
365.858
365.617
365.377
365.137
364.9
364.665
364.431
364.2
363.972
363.749
363.529
363.312
363.101
362.895
362.695
362.501
362.313
362.132
361.958
361.79
361.63
361.478
361.333
361.195
361.065
360.94
360.824
360.71
360.603
360.497
360.394
360.289
360.183
360.069
359.952
359.821
359.683
359.531
359.372
359.211
359.048
358.906
358.78
358.688
358.631
358.618
358.647
358.715
358.8
358.884
358.929
358.956
359.012
359.1
359.156
359.015
358.537
370.51
370.468
370.387
370.27
370.119
369.942
369.746
369.538
369.323
369.107
368.89
368.672
368.45
368.226
367.999
367.767
367.532
367.294
367.056
366.815
366.574
366.332
366.091
365.849
365.607
365.365
365.125
364.887
364.65
364.414
364.181
363.95
363.724
363.5
363.279
363.063
362.851
362.645
362.443
362.246
362.056
361.87
361.691
361.517
361.35
361.187
361.031
360.879
360.731
360.589
360.447
360.31
360.168
360.031
359.885
359.737
359.581
359.416
359.242
359.054
358.857
358.652
358.439
358.227
358.017
357.817
357.631
357.468
357.326
357.223
357.132
357.065
356.994
356.92
356.843
356.789
356.724
356.629
356.47
356.218
370.398
370.361
370.29
370.186
370.051
369.89
369.708
369.51
369.303
369.09
368.875
368.656
368.435
368.212
367.986
367.756
367.522
367.286
367.048
366.807
366.565
366.323
366.081
365.838
365.595
365.353
365.112
364.872
364.632
364.394
364.158
363.925
363.695
363.466
363.241
363.02
362.802
362.589
362.379
362.174
361.973
361.777
361.586
361.398
361.215
361.036
360.861
360.689
360.518
360.35
360.182
360.013
359.842
359.666
359.487
359.295
359.101
358.889
358.67
358.436
358.188
357.93
357.661
357.382
357.099
356.813
356.529
356.251
355.987
355.729
355.481
355.249
355.004
354.778
354.552
354.324
354.117
353.902
353.728
353.608
370.326
370.292
370.227
370.13
370.004
369.853
369.681
369.489
369.287
369.078
368.863
368.645
368.424
368.202
367.976
367.746
367.513
367.278
367.04
366.798
366.556
366.313
366.071
365.827
365.582
365.338
365.096
364.854
364.612
364.371
364.133
363.896
363.662
363.429
363.199
362.972
362.748
362.528
362.31
362.096
361.885
361.679
361.475
361.274
361.076
360.881
360.688
360.494
360.304
360.108
359.917
359.718
359.516
359.309
359.089
358.866
358.625
358.374
358.109
357.825
357.527
357.21
356.88
356.526
356.167
355.787
355.4
355.004
354.603
354.191
353.783
353.362
352.946
352.528
352.116
351.711
351.337
350.999
350.764
350.628
370.29
370.258
370.195
370.101
369.98
369.834
369.665
369.478
369.279
369.071
368.857
368.638
368.417
368.195
367.969
367.739
367.506
367.271
367.032
366.79
366.547
366.304
366.06
365.814
365.568
365.323
365.079
364.835
364.589
364.346
364.104
363.864
363.626
363.388
363.153
362.92
362.69
362.462
362.236
362.014
361.794
361.576
361.361
361.146
360.935
360.722
360.511
360.3
360.085
359.871
359.65
359.428
359.194
358.956
358.705
358.44
358.166
357.868
357.56
357.227
356.875
356.499
356.102
355.674
355.229
354.758
354.254
353.742
353.194
352.624
352.043
351.431
350.815
350.184
349.564
348.949
348.376
347.883
347.478
347.226
370.289
370.258
370.194
370.1
369.98
369.833
369.664
369.476
369.277
369.069
368.854
368.635
368.415
368.192
367.965
367.734
367.501
367.265
367.025
366.782
366.538
366.294
366.048
365.8
365.553
365.306
365.06
364.813
364.564
364.318
364.073
363.829
363.587
363.343
363.104
362.864
362.629
362.393
362.16
361.928
361.698
361.47
361.243
361.016
360.789
360.564
360.333
360.105
359.871
359.632
359.393
359.137
358.882
358.611
358.325
358.032
357.713
357.377
357.029
356.64
356.238
355.803
355.335
354.832
354.306
353.727
353.116
352.476
351.771
351.047
350.272
349.463
348.615
347.76
346.882
346.024
345.202
344.455
343.841
343.329
370.323
370.29
370.224
370.127
370.002
369.85
369.676
369.485
369.283
369.072
368.856
368.637
368.416
368.192
367.964
367.733
367.498
367.26
367.018
366.775
366.529
366.284
366.036
365.786
365.537
365.288
365.04
364.789
364.537
364.288
364.039
363.793
363.544
363.297
363.051
362.807
362.564
362.322
362.079
361.841
361.6
361.363
361.124
360.883
360.647
360.401
360.16
359.911
359.658
359.401
359.135
358.859
358.575
358.276
357.96
357.634
357.278
356.905
356.511
356.076
355.62
355.127
354.589
354.013
353.398
352.718
351.995
351.222
350.363
349.466
348.493
347.464
346.366
345.24
344.08
342.889
341.774
340.692
339.716
338.987
370.394
370.356
370.285
370.181
370.046
369.884
369.701
369.502
369.294
369.08
368.863
368.643
368.421
368.196
367.966
367.733
367.496
367.257
367.013
366.768
366.521
366.273
366.023
365.772
365.521
365.269
365.018
364.764
364.509
364.257
364.004
363.754
363.499
363.248
362.997
362.746
362.498
362.246
361.999
361.749
361.502
361.253
361.004
360.751
360.501
360.243
359.983
359.723
359.445
359.175
358.886
358.584
358.283
357.95
357.609
357.254
356.858
356.453
356.017
355.531
355.028
354.482
353.865
353.23
352.526
351.734
350.916
349.992
348.988
347.898
346.74
345.431
344.087
342.652
341.11
339.595
338.009
336.553
335.139
333.951
370.504
370.461
370.38
370.263
370.112
369.934
369.736
369.527
369.311
369.093
368.874
368.653
368.431
368.203
367.972
367.736
367.496
367.254
367.008
366.762
366.512
366.264
366.011
365.758
365.505
365.25
364.997
364.737
364.482
364.223
363.968
363.712
363.452
363.197
362.939
362.683
362.428
362.17
361.915
361.659
361.399
361.146
360.88
360.622
360.358
360.084
359.815
359.534
359.243
358.955
358.642
358.323
358.001
357.635
357.278
356.89
356.455
356.028
355.545
355.01
354.48
353.855
353.187
352.491
351.683
350.812
349.884
348.816
347.656
346.404
344.988
343.452
341.776
339.995
338.05
336.033
334.017
331.904
330.009
328.274
370.661
370.609
370.512
370.373
370.197
369.996
369.779
369.556
369.332
369.111
368.891
368.669
368.445
368.214
367.98
367.74
367.498
367.253
367.005
366.756
366.505
366.254
365.998
365.744
365.488
365.23
364.974
364.709
364.453
364.189
363.931
363.669
363.404
363.146
362.879
362.622
362.355
362.094
361.83
361.566
361.299
361.033
360.763
360.488
360.217
359.926
359.651
359.35
359.044
358.746
358.403
358.078
357.725
357.34
356.962
356.541
356.083
355.622
355.104
354.525
353.957
353.28
352.546
351.807
350.894
349.957
348.903
347.73
346.397
344.974
343.347
341.49
339.56
337.29
334.889
332.337
329.615
326.838
324.176
321.665
370.877
370.809
370.685
370.51
370.296
370.062
369.822
369.586
369.357
369.134
368.912
368.689
368.462
368.227
367.99
367.744
367.501
367.251
367.003
366.751
366.498
366.245
365.986
365.731
365.47
365.211
364.949
364.683
364.422
364.153
363.894
363.623
363.358
363.091
362.821
362.556
362.284
362.016
361.744
361.473
361.197
360.926
360.641
360.363
360.077
359.775
359.492
359.171
358.857
358.543
358.178
357.844
357.469
357.049
356.681
356.202
355.731
355.265
354.669
354.095
353.478
352.727
351.986
351.159
350.192
349.159
348.042
346.692
345.269
343.681
341.792
339.708
337.402
334.681
331.734
328.482
324.855
321.266
317.489
313.905
371.176
371.076
370.903
370.669
370.402
370.128
369.863
369.616
369.383
369.161
368.937
368.711
368.479
368.24
367.997
367.748
367.502
367.249
367
366.745
366.491
366.235
365.973
365.717
365.45
365.192
364.922
364.656
364.39
364.117
363.854
363.575
363.31
363.033
362.762
362.488
362.211
361.937
361.655
361.383
361.088
360.824
360.51
360.243
359.932
359.628
359.337
358.991
358.69
358.339
357.972
357.623
357.219
356.797
356.4
355.904
355.4
354.928
354.277
353.696
353.039
352.234
351.473
350.586
349.565
348.462
347.269
345.795
344.247
342.549
340.381
338.187
335.397
332.269
328.704
324.576
319.892
314.909
309.899
304.516
371.592
371.425
371.168
370.849
370.514
370.197
369.914
369.662
369.43
369.206
368.978
368.745
368.504
368.259
368.01
367.758
367.509
367.254
367.003
366.745
366.489
366.229
365.966
365.704
365.436
365.172
364.899
364.63
364.359
364.083
363.815
363.531
363.264
362.976
362.707
362.417
362.146
361.854
361.577
361.289
360.991
360.721
360.395
360.126
359.803
359.489
359.197
358.835
358.526
358.17
357.779
357.434
357.002
356.57
356.17
355.614
355.153
354.595
353.961
353.341
352.66
351.811
351.021
350.138
348.983
347.924
346.595
345
343.485
341.523
339.26
336.837
333.788
330.08
326.163
320.729
314.873
308.342
300.478
293.093
372.135
371.794
371.362
370.919
370.526
370.199
369.928
369.691
369.464
369.237
369.001
368.76
368.513
368.264
368.013
367.76
367.51
367.255
367.001
366.742
366.483
366.221
365.955
365.691
365.42
365.152
364.877
364.604
364.329
364.05
363.776
363.49
363.216
362.925
362.652
362.352
362.084
361.772
361.507
361.194
360.908
360.623
360.291
360.024
359.677
359.37
359.054
358.69
358.361
358.014
357.61
357.268
356.832
356.381
355.988
355.397
354.949
354.378
353.684
353.114
352.376
351.469
350.7
349.791
348.423
347.646
345.996
344.359
343.073
340.664
338.308
336.123
331.681
329.108
323.522
317.82
310.535
301.332
289.344
277.079
373.596
372.584
371.675
371.002
370.55
370.242
369.995
369.764
369.527
369.284
369.033
368.781
368.528
368.275
368.023
367.77
367.518
367.262
367.005
366.746
366.482
366.221
365.951
365.687
365.412
365.144
364.867
364.591
364.315
364.033
363.756
363.47
363.189
362.903
362.616
362.329
362.04
361.747
361.462
361.159
360.869
360.569
360.256
359.966
359.635
359.323
359.005
358.642
358.322
357.954
357.559
357.205
356.768
356.321
355.898
355.353
354.852
354.293
353.634
353.006
352.288
351.344
350.725
349.363
348.593
347.302
345.848
344.348
342.875
340.018
338.547
335.093
332.015
328.459
323.181
316.594
308.976
297.021
280.984
257.835
360.455
359.83
359.325
358.598
358
357.487
357.008
356.82
356.937
356.851
356.104
354.411
352.259
350.933
350.599
351.168
352.882
355.845
359.121
359.512
360.531
359.647
358.888
358.12
357.721
357.415
357.078
356.916
356.846
356.376
355.175
353.135
350.882
349.628
349.329
349.854
351.389
353.938
357.156
358.142
360.097
359.356
358.903
358.293
357.8
357.771
357.689
357.542
357.111
356.061
353.973
351.148
348.643
347.293
346.87
347.427
348.507
350.17
353.281
354.936
361.336
358.752
356.96
355.9
357.063
358.307
358.535
358.519
357.658
355.894
353.234
349.919
346.817
344.915
344.248
344.718
345.938
347.226
349.718
351.507
359.174
357.23
356.256
356.895
357.544
358.231
359.397
359.319
358.096
356.043
352.919
348.842
344.673
341.702
340.302
341.312
343.379
344.811
346.876
348.817
357.786
357.005
356.571
356.711
357.352
359.554
360.419
359.947
358.558
355.994
352.377
347.915
342.866
338.886
336.858
337.683
340.712
342.664
344.906
346.865
355.981
355.787
355.822
356.247
357.452
359.06
360.016
360.11
358.654
355.98
352.246
347.42
341.596
336.972
333.59
334.795
339.564
342.252
344.283
345.816
353.584
353.691
354.011
354.721
355.911
357.367
358.51
358.87
357.893
355.539
351.815
347.04
341.217
337.044
334.139
335.341
341.316
344.203
344.021
345.689
350.63
350.833
351.239
352.006
353.167
354.497
355.772
356.416
355.982
354.331
351.604
347.79
343.288
339.608
336.015
336.649
340.921
341.947
344.11
348.046
347.157
347.246
347.69
348.385
349.416
350.82
352.143
353.095
353.44
352.631
350.442
348.218
345.826
344.655
344.2
343.783
345.623
346.037
349.407
354.384
343.098
343.078
343.306
344.02
345.05
346.338
347.829
349.324
350.369
351.444
352.155
351.548
349.657
347.112
346.102
345.286
342.122
344.083
347.381
351.796
338.383
338.187
338.352
338.818
339.864
341.399
343.168
345.166
346.921
347.987
348.846
350.101
351.6
352.983
353.386
348.117
345.671
347.22
356.98
377.922
333.102
332.496
332.487
333.037
333.987
335.56
337.737
340.515
343.966
347.621
350.601
353.045
355.38
360.965
362.482
356.181
353.52
348.08
355.091
365.595
326.856
325.981
325.614
326.033
327.331
329.283
331.767
334.364
336.948
340.189
343.886
348.311
351.404
353.374
354.007
350.876
344.817
343.717
351.361
357.757
319.561
318.144
317.524
317.713
319.023
321.557
325.272
329.42
332.66
334.479
336.134
339.236
343.123
346.222
348.619
346.147
337.113
336.493
343.165
349.936
310.786
308.488
307.639
307.921
309.37
312.018
315.436
319.218
323.582
328.131
332.226
336.005
339.526
341.926
343.193
341.111
335.141
335.934
343.176
350.96
299.904
296.357
294.391
295.224
298.687
303.378
307.766
310.63
312.99
317.277
323.477
329.529
334.4
337.452
339.326
340.404
340.976
344.582
352.439
357.565
286.313
280.917
278.191
278.382
282.434
288.721
295.752
302.285
307.531
312.089
317.23
323.08
328.613
333.149
337.727
342.361
346.868
352.476
359.39
364.35
265.239
258.529
257.998
263.406
269.746
274.678
279.53
286.393
294.597
302.966
310.64
317.723
323.961
329.948
336.279
343.109
350.038
356.936
363.685
367.672
229.723
218.268
224.708
238.198
251.595
262.706
269.733
274.534
281.348
291.442
301.596
310.561
318.254
325.605
333.271
341.162
348.531
355.944
362.66
366.377
189.138
184.725
195.741
208.331
222.46
237.944
251.307
260.948
269.568
279.798
291.377
302.004
310.92
319.521
327.874
335.863
343.805
351.246
357.469
360.942
190.633
189.246
195.391
194.084
200.712
211.665
225.703
241.493
255.35
268.6
281.328
292.436
301.911
311.35
320.686
329.321
337.13
343.688
349.364
352.013
183.275
185.522
187.993
191.101
191.265
191.681
200.03
217.188
237.817
255.847
270.426
282.317
292.541
302.663
312.699
321.375
328.828
335.172
339.608
341.522
181.599
177.465
185.416
193.187
184.062
178.38
178.16
191.88
216.317
239.291
257.755
271.481
282.619
293.205
303.454
312.537
319.861
325.285
329.002
331.571
177.124
176.648
177.651
176.575
170.201
161.718
159.714
170.412
195.172
221.747
243.384
259.383
271.894
283.102
293.571
302.333
309.368
314.875
319.064
321.021
168.215
165.835
164.149
153.319
144.362
136.989
139.066
149.552
174.61
204.213
229.334
247.485
261.241
272.801
282.886
291.639
299.313
305.118
308.472
309.883
161.983
158.731
148.304
129.337
111.643
105.021
110.542
124.423
152.999
187.69
215.998
236.222
251.551
263.498
273.177
281.794
288.943
294.175
297.799
299.868
157.561
151.999
135.638
106.595
79.9521
75.2232
83.7048
102.148
134.634
173.087
203.825
225.969
242.366
254.779
264.066
272.116
279.268
284.617
288.073
289.705
156.113
149.418
130.77
94.4305
61.6173
55.0095
64.8004
85.2554
120.522
161.854
193.924
216.398
233.66
246.412
255.504
263.565
270.403
275.383
278.441
279.961
162.076
156.775
135.601
95.7069
59.7101
51.1475
60.213
79.5882
114.99
157.805
187.65
209.82
227.435
239.887
248.396
255.651
261.761
266.361
269.563
271.16
173.312
168.192
147.48
110.352
78.1493
68.7433
76.1289
91.2705
128.155
163.16
189.722
209.724
224.817
235.53
242.93
249.218
254.706
258.831
261.451
262.806
184.76
181.132
164.303
137.644
115.957
107.273
111.832
125.382
155.932
179.586
200.752
214.797
226.349
233.996
239.294
244.024
248.374
251.848
254.247
255.341
194.766
190.347
178.297
165.521
156.901
155.518
159.485
172.663
189.846
204.852
215.839
223.055
229.627
234.029
237.277
240.397
243.639
246.062
247.684
248.647
197.428
194.472
188.529
188.786
194.877
203.385
210.056
218.518
222.87
228.358
230.96
231.654
232.951
234.203
235.716
237.493
239.472
240.956
242.058
242.583
198.868
196.339
194.975
204.043
222.906
239.573
249.317
252.647
248.603
244.376
241.649
238.188
235.9
234.303
233.826
234.295
235.207
235.945
236.565
237.049
201.052
198.57
200.421
213.834
238.719
260.853
272.014
272.309
262.596
253.294
246.809
241.595
236.431
233.234
231.617
231.087
231.124
231.18
231.442
231.605
205.317
202.819
203.421
219.4
243.185
265.275
276.888
277.914
266.994
255.111
246.856
240.625
234.458
230.365
227.991
226.842
226.346
226.168
226.107
226.108
209.438
209.555
208.016
218.757
235.724
252.524
263.392
265.94
259.971
249.457
241.675
234.781
229.669
225.687
222.882
221.721
221.322
220.965
220.839
220.847
215.637
213.487
207.576
209.71
217.243
227.613
236.647
240.782
240.116
234.797
229.639
224.512
221.37
218.4
216.304
215.489
215.238
215.197
215.188
215.169
219.27
209.71
197.995
192.382
192.777
198.255
204.579
209.352
212.824
212.565
211.535
210.357
209.4
208.445
207.93
208.072
208.5
208.869
209.2
209.399
207.838
195.07
179.94
170.675
167.303
169.085
172.219
176.885
182.355
185.844
189.407
192.589
194.486
196.417
198.136
199.577
200.937
202.05
202.871
203.254
184.112
172.049
157.722
147.588
142.325
141.098
141.643
145.884
151.218
157.199
165.198
172.461
177.797
182.809
186.818
189.897
192.533
194.776
196.191
196.851
156.626
146.352
133.897
124.221
118.046
114.36
113.139
116.626
121.227
128.794
140.036
151.312
160.317
168.402
175.107
180.227
184.247
187.343
189.56
190.608
129.279
120.8
110.322
101.143
93.98
88.1691
86.0218
88.617
93.1014
102.116
115.406
129.724
142.331
153.601
163.038
170.113
175.762
180.253
183.067
184.466
104.477
97.2084
87.9419
78.6258
69.9492
62.3292
59.6006
61.6544
66.9363
77.6198
92.608
109.123
124.853
139.283
151.306
160.61
168.075
173.638
177.34
179.217
83.1535
76.6921
67.8168
57.6593
46.9887
37.6776
34.2315
36.2068
43.1365
55.5916
71.825
90.3345
109.53
126.185
140.048
151.723
161.275
168.065
172.458
174.956
65.8609
59.8155
51.0434
39.6808
26.7441
15.9503
12.0343
14.1844
22.7592
36.9595
53.959
73.9322
96.2724
114.934
130.436
144.463
155.925
163.947
169.384
172.418
53.6294
47.6244
38.4318
25.7758
10.9294
-1.04078
-5.46355
-2.87351
7.16035
22.7879
39.7148
60.9325
86.0382
105.946
122.883
139.4
152.699
161.619
168.151
172.031
47.4784
41.0804
31.1827
17.3594
0.940374
-11.7185
-16.3251
-13.3693
-2.54195
13.5385
29.8835
52.2522
79.3553
99.0571
117.699
136.81
151.709
161.796
170.01
174.223
47.1014
40.5068
30.4132
15.8997
-2.20677
-15.4539
-19.7875
-16.5508
-5.57193
10.2589
26.0858
48.4529
76.166
96.0149
116.528
136.788
152.697
164.986
174.919
179.82
52.0317
45.855
35.8277
20.7668
2.02738
-11.0806
-15.5602
-12.4048
-2.14105
12.2132
28.492
50.0748
75.4117
97.4116
118.154
138.282
156.008
171.061
182.374
188.586
63.5167
57.3842
47.113
32.0017
13.328
0.47804
-4.21141
-1.67461
7.21626
19.6837
34.9924
56.2625
79.9185
101.365
121.876
142.454
161.755
179.159
193.301
201.623
80.5858
75.1268
64.6521
49.5579
31.4739
18.2103
13.3115
15.1198
22.2868
32.8449
46.8501
67.0896
88.451
107.364
127.316
148.496
169.315
188.779
206.09
216.998
100.527
96.1569
86.853
71.9657
54.506
41.3286
35.9216
36.9506
42.6576
51.4803
63.8351
81.3572
99.1522
115.466
134.936
155.543
176.139
196.982
218.286
234.734
124.092
119.698
111.245
97.2684
80.1256
66.7556
60.707
61.0171
65.4742
72.665
82.996
96.7672
110.694
124.893
143.043
162.285
181.39
203.242
230.439
251.639
149.712
146.041
138.001
124.954
108.33
94.0288
86.189
84.8578
87.7715
93.1437
100.958
111.054
121.588
134.374
151.017
167.74
183.712
202.726
228.263
252.615
174.259
171.693
165.432
153.572
137.794
122.61
112.407
108.247
108.572
111.574
116.966
124.289
132.616
144.141
158.108
170.699
180.968
190.436
202.342
227.589
198.81
196.717
191.682
181.541
167.299
152.255
140.159
132.89
130.11
130.546
133.583
138.608
145.025
154.034
163.663
170.636
175.664
178.062
176.443
189.447
220.997
220.009
216.246
208.184
196.126
182.055
169.27
159.99
154.599
152.559
153.228
155.747
159.7
164.923
169.485
171.336
171.408
169.382
165.775
167.953
240.149
239.858
237.665
231.566
221.776
209.937
198.092
188.091
180.999
177.004
175.399
175.135
175.852
176.696
176.384
173.955
170.121
165.339
163.192
162.179
256.362
256.574
255.136
250.916
243.676
234.239
224.04
214.473
206.633
201.033
197.487
194.579
192.096
189.139
184.596
179.208
172.52
166.636
165.199
165.996
269.047
269.641
269.084
266.155
260.697
253.284
244.954
236.513
228.684
222.111
216.965
212.014
206.49
200.536
192.892
185.147
177.261
171.632
170.853
171.764
278.576
279.317
279.209
277.141
273.02
267.182
260.333
252.937
245.51
238.49
232.186
225.782
218.373
210.834
201.5
191.472
182.598
178.215
177.987
178.347
285.478
286.153
286.34
284.675
281.255
276.414
270.603
264.079
257.152
250.122
243.054
236.166
227.93
219.243
209.853
199.704
190.71
185.222
184.879
185.7
290.075
290.694
290.818
289.344
286.358
282.103
276.939
271.037
264.488
257.698
250.614
243.507
235.518
226.889
218.061
208.105
199.677
193.23
193.695
194.389
292.834
293.274
293.273
291.854
289.06
285.143
280.42
275.008
268.904
262.5
255.601
248.658
241.308
232.972
225.268
217.064
208.885
202.753
203.212
203.944
294.44
294.634
294.483
292.985
290.236
286.519
282.081
277.032
271.23
265.074
258.709
252.116
245.739
238.627
231.482
225.402
219.822
213.313
212.446
213.728
295.073
295.116
294.743
293.19
290.458
286.854
282.599
277.792
272.369
266.579
260.753
254.859
249.233
243.37
237.224
231.637
228.191
224.004
220.943
222.86
295.163
295.052
294.407
292.823
290.14
286.61
282.494
277.955
272.805
267.268
261.869
256.442
251.536
247.116
242.754
238.909
234.567
233.726
229.889
230.87
295.147
294.843
294.07
292.348
289.611
286.143
282.14
277.66
272.795
267.575
262.479
257.841
253.61
250.204
247.249
245.486
241.577
240.313
237.252
237.054
295.144
294.746
293.811
292.022
289.203
285.656
281.609
277.287
272.536
267.468
262.604
258.146
254.54
252.106
250.402
249.291
247.523
244.816
242.325
241.205
295.262
294.866
293.841
291.882
288.935
285.302
281.263
276.81
272.103
267.155
262.328
258.267
254.945
252.803
251.953
251.193
250.732
248.046
244.976
243.114
295.676
295.226
294.178
292.179
289.06
285.156
280.867
276.39
271.61
266.606
261.713
257.238
253.803
251.568
250.769
252.215
251.311
249.019
244.935
242.972
296.44
295.998
294.917
292.784
289.423
285.229
280.735
275.96
271.009
265.693
260.327
255.417
251.389
249.118
248.274
248.863
248.28
246.177
242.917
241.129
297.435
297.099
296.009
293.841
290.18
285.596
280.73
275.66
270.255
264.52
258.612
252.847
247.803
244.031
242.225
241.679
240.938
239.063
237.497
236.705
298.662
298.416
297.287
295.134
291.082
286.303
280.994
275.365
269.538
263.019
256.12
249.031
241.898
236.29
232.483
228.967
227.694
227.027
227.189
228.566
300.11
299.926
298.865
296.529
292.496
287.213
281.376
275.249
268.573
261.285
253.039
244.222
235.089
226.057
218.903
213.354
210.018
209.369
211.511
214.191
301.57
301.519
300.395
298.217
294.047
288.439
282.111
275.223
267.914
259.469
249.818
238.968
226.951
215.167
203.852
193.759
188.733
189.336
192.795
197.841
303.034
302.909
302.091
299.943
295.737
289.853
283.088
275.632
267.306
257.923
246.473
233.373
218.45
202.239
187.046
175.03
168.696
168.76
174.511
179.916
304.484
304.177
303.443
301.727
297.54
291.601
284.493
276.392
267.323
256.683
243.98
228.634
210.886
193.029
174.889
160.152
152.88
154.88
157.529
162.516
305.38
304.956
305.065
303.471
299.423
293.405
286.191
277.774
267.993
256.606
242.584
226.149
206.692
185.956
165.849
149.699
141.1
136.128
141.842
151.141
305.571
304.805
306.118
305.013
301.444
295.784
288.288
279.632
269.651
257.791
243.263
225.516
204.985
183.415
161.887
145.235
138.664
140.63
147.167
152.488
306.606
306.27
306.977
305.609
303.455
298.315
290.682
282.033
272.018
260.197
245.559
227.774
206.306
183.689
163.175
147.462
139.691
141.839
147.43
151.605
307.853
308.91
308.153
307.275
305.467
300.795
293.522
284.898
275.052
263.607
249.495
231.935
211.416
189.42
167.789
149.973
139.8
138.797
146.364
156.759
309.064
309.775
308.862
309.027
307.444
303.392
296.839
288.662
278.911
267.479
254.488
238.31
218.549
197.544
177.498
160.796
152.346
153.58
162.413
171.702
309.942
309.898
309.826
310.218
309.345
306.062
300.503
292.623
283.332
272.414
259.932
245.369
227.703
207.85
189.067
174.738
168.638
170.606
178.003
189.993
310.709
310.329
311.591
311.669
310.94
308.308
303.817
296.665
287.58
277.311
265.922
252.556
236.737
219.006
201.912
187.797
180.842
183.687
190.867
205.103
311.304
311.556
312.282
312.421
311.769
310.044
306.388
300.087
292.094
282.616
271.76
259.669
245.656
229.73
213.354
199.259
189.724
188.62
197.479
199.121
311.614
311.868
312.049
313.024
312.161
310.831
307.969
303.005
296.046
287.762
277.905
266.577
253.878
239.469
223.496
207.449
195.116
187.451
183.081
187.971
311.71
312.11
312.287
312.727
312.246
311.219
308.67
305.099
299.717
292.672
283.895
273.707
261.775
247.533
231.657
213.948
194.352
179.158
163.362
124.41
311.593
312.226
312.484
312.604
312.391
311.013
308.895
306.068
302.353
297.326
289.865
280.598
269.346
255.018
237.385
218.427
194.578
161.451
131.618
29.3408
311.082
311.661
311.508
311.402
310.916
309.817
308.243
306.868
304.464
301.209
295.869
287.84
276.663
262.547
243.928
220.401
197.829
156.39
104.528
36.6403
310.016
309.955
309.333
308.649
307.499
306.929
306.501
305.986
305.922
304.695
301.723
295.292
284.399
268.808
253.293
226.656
200.901
167.267
113.75
72.8829
308.392
307.409
305.885
303.971
302.92
303.083
304.541
305.64
306.542
307.829
309.646
299.1
295.514
273.726
260.607
237.329
208.019
184.452
147.158
110.031
305.912
304.174
301.23
298.201
296.554
298.195
300.907
304.213
308.098
308.202
319.412
298.006
305.572
277.184
265.568
249.174
223.038
200.514
176.402
141.297
303.791
301.323
297.81
294.354
292.681
295.507
300.001
303.264
308.285
308.745
319.097
293.633
301.251
271.224
262.779
256.221
240.329
216.196
195.481
165.919
303.642
300.861
296.069
291.863
290.846
294.175
298.108
303.227
308.215
304.465
295.099
283.077
274.264
268.658
268.516
265.621
255.37
232.324
209.615
183.654
305.839
303.442
298.977
294.861
293.924
296.352
299.438
303.873
304.31
293.677
274.057
287.593
281.934
295.232
290.476
278.011
264.536
244.745
220.819
195.572
307.553
304.786
301.226
298.271
298.221
302.506
301.391
308.003
284.395
303.784
283.485
323.059
302.377
312.589
301.191
281.341
265.864
249.858
226.718
201.894
313.524
309.501
304.165
301.08
301.475
305.115
308.643
325.541
294.104
336.556
325.692
340.559
308.559
318.695
304.162
283.47
267.363
251.57
229.412
204.752
-141.686
-90.6492
-146.222
-56.9943
-110.019
-116.595
-123.472
-110.701
-104.224
-101.082
-103.51
-106.087
-106.684
-107.652
-108.237
-103.339
-100.556
-97.4503
-97.2211
-102.736
-117.461
-143.153
-178.96
-222.64
-269.239
-313.466
-348.778
-369.741
-372.864
-360.423
-334.429
-298.132
-256.648
-216.576
-181.491
-153.523
-133.981
-122.244
-116.645
-115.116
-115.353
-115.288
-113.242
-108.273
-99.4744
-86.6666
-70.8446
-53.2646
-35.3275
-18.8333
-5.07317
5.53233
12.1032
15.0266
14.9591
12.2069
7.64412
2.15657
-3.6885
-9.40228
-14.4203
-18.4628
-21.1073
-22.2659
-21.9157
-20.3186
-17.6738
-14.1442
-10.0932
-5.68396
-1.31994
2.60166
5.90684
8.23221
9.23683
8.47252
6.33006
3.80889
1.527
0.0289558