/*--------------------------------*- C++ -*----------------------------------*\
| =========                 |                                                 |
| \\      /  F ield         | OpenFOAM: The Open Source CFD Toolbox           |
|  \\    /   O peration     | Version:  2306                                  |
|   \\  /    A nd           | Website:  www.openfoam.com                      |
|    \\/     M anipulation  |                                                 |
\*---------------------------------------------------------------------------*/
FoamFile
{
    version     2.0;
    format      ascii;
    arch        "LSB;label=32;scalar=64";
    class       surfaceScalarField;
    location    "0.15";
    object      phi;
}
// * * * * * * * * * * * * * * * * * * * * * * * * * * * * * * * * * * * * * //

dimensions      [0 3 -1 0 0 0 0];

oriented        oriented;

internalField   nonuniform List<scalar> 
8520
(
0.00992784
7.21646e-05
0.00978962
0.000138213
0.00962953
0.000160094
0.00946828
0.000161249
0.00930946
0.000158821
0.0091492
0.00016026
0.0089864
0.000162802
0.00882101
0.000165391
0.00865374
0.000167266
0.00848571
0.000168029
0.00831797
0.00016774
0.0081512
0.00016677
0.0079857
0.000165504
0.00782155
0.000164145
0.00765875
0.000162799
0.00749741
0.000161347
0.00733757
0.000159833
0.00717934
0.000158234
0.0070228
0.000156536
0.00686804
0.000154757
0.0067152
0.000152849
0.00656434
0.000150851
0.0064155
0.000148848
0.00626876
0.000146734
0.00612421
0.000144549
0.00598185
0.000142358
0.00584179
0.000140061
0.00570394
0.000137858
0.00556842
0.000135513
0.00543524
0.000133182
0.00530438
0.000130865
0.00517582
0.000128555
0.00504945
0.000126376
0.00492526
0.000124183
0.00480315
0.000122115
0.00468295
0.000120198
0.00456455
0.000118403
0.0044477
0.000116853
0.00433223
0.000115464
0.0042178
0.000114435
0.00410414
0.000113657
0.00399079
0.000113346
0.0038774
0.000113396
0.00376348
0.000113917
0.00364844
0.000115045
0.00353179
0.000116641
0.00341266
0.000119133
0.00329052
0.000122139
0.00316423
0.000126295
0.00303312
0.00013111
0.00289596
0.000137157
0.0027517
0.000144256
0.00259927
0.000152433
0.00243704
0.000162231
0.00226422
0.000172822
0.00207883
0.000185386
0.00188015
0.000198682
0.00166644
0.000213714
0.00143705
0.000229384
0.00119103
0.000246025
0.000928471
0.000262557
0.000649788
0.000278683
0.000357146
0.000292642
5.25732e-05
0.000304572
-0.00025999
0.000312563
-0.000567878
0.000307888
-0.000830035
0.000262157
-0.000988489
0.000158454
-0.00100134
1.28557e-05
-0.000863951
-0.000137394
-0.000583245
-0.000280707
-0.000221893
-0.000361352
6.16981e-05
-0.000283591
0.00015566
-9.39618e-05
6.40279e-05
9.16322e-05
-5.51484e-05
0.000119176
0.000114077
-0.000169225
0.000366135
-0.000252058
0.0002894
7.67347e-05
0.000213098
7.63027e-05
0.0100357
3.64624e-05
0.0100798
9.40815e-05
0.0101108
0.000129093
0.0101272
0.000144872
0.0101358
0.00015025
0.0101431
0.000152937
0.0101494
0.000156544
0.0101532
0.000161537
0.0101537
0.000166787
0.0101503
0.000171448
0.0101431
0.000174943
0.0101325
0.00017738
0.010119
0.000179013
0.0101029
0.000180171
0.0100845
0.000181199
0.010064
0.000181905
0.0100412
0.00018262
0.0100163
0.000183138
0.00998927
0.000183543
0.00996024
0.000183786
0.00992927
0.000183823
0.00989641
0.000183716
0.00986169
0.000183561
0.00982525
0.000183181
0.00978708
0.000182713
0.00974723
0.000182211
0.0097058
0.000181489
0.0096627
0.000180955
0.00961813
0.000180088
0.00957197
0.000179341
0.00952424
0.000178595
0.00947503
0.000177764
0.00942417
0.000177237
0.00937184
0.000176512
0.00931779
0.000176165
0.00926213
0.000175858
0.00920463
0.0001759
0.00914531
0.000176176
0.00908394
0.00017683
0.00902043
0.000177951
0.00895456
0.000179526
0.00888604
0.000181865
0.00881462
0.000184811
0.00874002
0.000188524
0.00866176
0.000193305
0.00857962
0.000198774
0.00849276
0.000205998
0.00840111
0.000213786
0.0083034
0.00022401
0.0081996
0.000234911
0.00808812
0.000248634
0.00796875
0.00026363
0.00783988
0.000281298
0.00770062
0.000301488
0.00754976
0.000323688
0.00738546
0.000349688
0.00720689
0.000377244
0.00701159
0.000409014
0.00679861
0.000442369
0.00656568
0.000478952
0.00631084
0.000517396
0.00603318
0.000556344
0.00572908
0.000596741
0.00540147
0.000632183
0.00504949
0.000664546
0.00468183
0.000675544
0.00428405
0.000659942
0.00381799
0.000624519
0.00324481
0.000586036
0.0025531
0.000554312
0.00167749
0.000594906
0.000643571
0.000672564
-0.000379589
0.000739569
-0.000968176
0.000494626
-0.00109656
0.000220013
-0.000887907
-8.94744e-05
-0.000642921
-0.000414211
-0.000421917
-0.000473062
-0.000324378
-2.08042e-05
0.000327229
-0.000438509
0.0100142
2.23099e-05
0.010044
6.41962e-05
0.0100778
9.53475e-05
0.0101073
0.000115348
0.0101314
0.000126177
0.0101522
0.00013214
0.010173
0.000135695
0.010195
0.000139553
0.0102179
0.000143873
0.0102409
0.000148515
0.0102631
0.0001527
0.0102844
0.000156131
0.0103045
0.000158853
0.0103238
0.000160876
0.0103424
0.000162647
0.0103604
0.00016391
0.0103777
0.000165279
0.0103944
0.000166405
0.0104104
0.000167556
0.0104257
0.000168518
0.0104401
0.000169407
0.0104537
0.000170152
0.0104663
0.000170942
0.010478
0.000171449
0.0104887
0.000171978
0.0104984
0.00017253
0.0105071
0.000172788
0.0105146
0.000173498
0.0105211
0.000173576
0.0105262
0.000174252
0.0105302
0.000174586
0.0105328
0.00017521
0.010534
0.000175948
0.0105338
0.000176705
0.0105322
0.000177819
0.0105289
0.000179141
0.010524
0.000180763
0.0105173
0.000182919
0.0105089
0.000185246
0.0104982
0.000188627
0.0104858
0.000191972
0.0104707
0.000196971
0.0104536
0.000201861
0.0104336
0.00020857
0.010411
0.000215915
0.0103853
0.000224425
0.010356
0.000235319
0.0103237
0.000246066
0.0102865
0.000261225
0.010246
0.000275425
0.0101996
0.000295015
0.0101486
0.000314587
0.0100914
0.000338494
0.0100275
0.000365388
0.00995695
0.000394276
0.00987746
0.000429176
0.00978983
0.000464874
0.00969149
0.000507357
0.00958258
0.000551278
0.00946066
0.000600872
0.00932579
0.000652266
0.00917453
0.000707609
0.00900847
0.0007628
0.00882306
0.000817594
0.00861994
0.000867662
0.00838682
0.000908669
0.0081042
0.000942553
0.00775185
0.000976873
0.00732626
0.00101163
0.00682816
0.00105241
0.00630025
0.00112282
0.0057692
0.00120361
0.0052289
0.00127988
0.00445345
0.00127007
0.00347102
0.00120245
0.00223229
0.00114925
0.000724403
0.00109368
-0.000618863
0.000870205
-0.00117624
0.000536572
0.000421281
-0.00127029
0.0100069
1.53917e-05
0.0100267
4.43705e-05
0.0100519
7.02384e-05
0.0100769
9.02745e-05
0.0101003
0.000102766
0.0101222
0.000110277
0.0101431
0.000114769
0.0101642
0.000118467
0.0101864
0.000121732
0.0102095
0.000125328
0.0102332
0.000129052
0.010257
0.0001323
0.0102806
0.000135278
0.0103039
0.000137542
0.0103271
0.000139456
0.0103502
0.000140855
0.0103732
0.000142227
0.0103962
0.000143391
0.0104192
0.000144584
0.0104422
0.000145567
0.0104649
0.000146674
0.0104875
0.000147533
0.0105098
0.000148681
0.0105319
0.000149287
0.0105536
0.000150342
0.010575
0.000151077
0.0105959
0.000151929
0.0106164
0.000152977
0.0106364
0.000153589
0.0106557
0.000154905
0.0106746
0.000155775
0.0106926
0.000157192
0.0107099
0.000158583
0.0107265
0.000160172
0.0107421
0.000162181
0.0107569
0.000164383
0.0107705
0.000167094
0.0107833
0.000170188
0.0107947
0.000173854
0.0108051
0.000178226
0.0108139
0.000183145
0.0108216
0.00018929
0.0108277
0.000195737
0.0108321
0.000204121
0.0108352
0.000212821
0.0108361
0.00022359
0.0108354
0.000235943
0.0108326
0.000248949
0.0108273
0.000266517
0.0108205
0.000282229
0.0108098
0.000305702
0.0107982
0.000326151
0.0107819
0.000354765
0.0107641
0.000383274
0.0107422
0.000416146
0.0107164
0.000454992
0.0106879
0.00049331
0.0106534
0.000541879
0.0106158
0.000588852
0.010572
0.000644678
0.0105225
0.000701754
0.0104665
0.000763625
0.010403
0.000826371
0.010327
0.000893565
0.0102383
0.000956356
0.0101203
0.00102671
0.00996895
0.00109386
0.00977913
0.00116669
0.0095481
0.00124266
0.00927682
0.00132369
0.00897802
0.00142161
0.00866157
0.00152006
0.00829258
0.00164887
0.00779328
0.00176937
0.0071613
0.00183443
0.00645267
0.00185788
0.00570837
0.00183798
0.00466996
0.00190862
0.00329381
0.00191272
0.0018709
0.00184419
0.0100043
1.10819e-05
0.0100166
3.20748e-05
0.010035
5.18793e-05
0.0100563
6.89639e-05
0.010078
8.10141e-05
0.0100988
8.94544e-05
0.0101193
9.43448e-05
0.0101397
9.80714e-05
0.0101607
0.000100723
0.0101826
0.00010343
0.0102051
0.000106533
0.0102282
0.000109166
0.0102515
0.000111994
0.0102749
0.0001142
0.0102983
0.000116058
0.0103215
0.000117611
0.0103449
0.000118813
0.0103682
0.000120071
0.0103918
0.000121047
0.0104153
0.000122055
0.0104388
0.000123123
0.0104623
0.000124031
0.0104857
0.000125271
0.0105092
0.00012588
0.0105322
0.000127279
0.0105553
0.000127959
0.0105779
0.000129343
0.0106006
0.000130317
0.0106227
0.000131504
0.0106446
0.000132988
0.010666
0.00013437
0.010687
0.000136154
0.0107075
0.000138082
0.0107276
0.00014009
0.0107469
0.000142868
0.0107658
0.000145473
0.0107838
0.000149094
0.0108013
0.000152719
0.0108179
0.000157279
0.0108336
0.000162475
0.0108486
0.000168118
0.0108625
0.000175477
0.0108758
0.000182406
0.0108875
0.000192448
0.0108989
0.000201432
0.0109083
0.000214132
0.0109174
0.000226858
0.0109247
0.000241601
0.0109311
0.00026019
0.0109365
0.000276772
0.0109397
0.000302538
0.0109435
0.000322377
0.0109433
0.000354975
0.0109454
0.000381153
0.010942
0.000419484
0.010942
0.000455043
0.0109366
0.000498685
0.010933
0.000545481
0.0109269
0.000594931
0.0109191
0.000652502
0.0109107
0.000710187
0.0109
0.000774257
0.010883
0.00084342
0.0108651
0.000911449
0.0108298
0.000991713
0.0107872
0.00106924
0.0107229
0.00115823
0.0106441
0.00124542
0.0105379
0.00134892
0.0104135
0.00144802
0.0102585
0.00157663
0.0100769
0.00170172
0.00985838
0.00186735
0.00961523
0.00201252
0.0092987
0.00215096
0.00889152
0.00226506
0.00835563
0.00237386
0.00772901
0.00253525
0.00696999
0.00267174
0.00268388
0.00615701
0.010003
8.05545e-06
0.0100118
2.3288e-05
0.0100255
3.81506e-05
0.0100432
5.13409e-05
0.0100625
6.17259e-05
0.0100824
6.95066e-05
0.0101024
7.43314e-05
0.0101225
7.80288e-05
0.0101427
8.04303e-05
0.0101637
8.24935e-05
0.0101854
8.48e-05
0.0102078
8.68021e-05
0.0102305
8.92884e-05
0.0102535
9.12374e-05
0.0102766
9.28848e-05
0.0102997
9.45488e-05
0.010323
9.55006e-05
0.0103461
9.69474e-05
0.0103696
9.75445e-05
0.0103929
9.87606e-05
0.0104165
9.9553e-05
0.0104398
0.000100695
0.0104634
0.000101731
0.0104867
0.000102582
0.0105099
0.000104022
0.010533
0.00010485
0.0105559
0.000106513
0.0105787
0.000107499
0.010601
0.000109139
0.0106232
0.000110782
0.0106451
0.000112522
0.0106665
0.000114747
0.0106878
0.000116835
0.0107082
0.000119614
0.0107286
0.000122458
0.0107481
0.000126054
0.0107675
0.000129702
0.0107857
0.000134422
0.0108039
0.000139169
0.010821
0.000145306
0.0108376
0.000151552
0.0108536
0.000159476
0.0108685
0.000167454
0.0108831
0.000177881
0.0108966
0.000187939
0.0109094
0.00020136
0.0109216
0.000214601
0.0109325
0.000230753
0.0109435
0.000249215
0.0109527
0.000267482
0.0109621
0.000293221
0.0109706
0.000313875
0.010978
0.000347571
0.0109862
0.000372922
0.0109921
0.00041359
0.0110005
0.000446685
0.011005
0.000494123
0.0110146
0.000535854
0.0110178
0.000591787
0.0110285
0.000641749
0.0110317
0.000707049
0.0110403
0.000765665
0.011042
0.000841728
0.0110449
0.000908477
0.0110372
0.000999485
0.0110303
0.00107606
0.0110095
0.00117905
0.0109816
0.0012733
0.0109423
0.00138826
0.0108844
0.00150594
0.0108146
0.00164638
0.0107242
0.00179215
0.0106282
0.00196337
0.0105117
0.00212898
0.0103506
0.0023121
0.0101372
0.00247844
0.00982364
0.00268742
0.00951288
0.00284601
0.00912357
0.00306105
0.0031261
0.00868136
0.0100024
5.66674e-06
0.0100093
1.63983e-05
0.0100204
2.70339e-05
0.0100353
3.64549e-05
0.0100524
4.46212e-05
0.0100711
5.08362e-05
0.0100904
5.49964e-05
0.0101101
5.83057e-05
0.0101302
6.0363e-05
0.0101507
6.20171e-05
0.0101718
6.36368e-05
0.0101936
6.50326e-05
0.0102158
6.71215e-05
0.0102384
6.8594e-05
0.0102612
7.00794e-05
0.0102842
7.15444e-05
0.0103073
7.24083e-05
0.0103304
7.38023e-05
0.0103538
7.41975e-05
0.010377
7.55209e-05
0.0104005
7.60882e-05
0.0104238
7.74308e-05
0.0104473
7.81968e-05
0.0104705
7.94011e-05
0.0104938
8.06808e-05
0.0105168
8.18563e-05
0.0105398
8.35019e-05
0.0105626
8.47321e-05
0.0105851
8.66069e-05
0.0106074
8.8475e-05
0.0106294
9.05314e-05
0.0106512
9.30177e-05
0.0106725
9.54984e-05
0.0106936
9.85469e-05
0.010714
0.000102051
0.0107343
0.000105677
0.0107537
0.000110378
0.0107732
0.000114857
0.0107914
0.000120991
0.01081
0.000126754
0.010827
0.000134542
0.0108444
0.000142044
0.0108602
0.000151665
0.0108765
0.000161609
0.010891
0.000173388
0.0109061
0.000186302
0.0109195
0.000201134
0.0109333
0.000216995
0.010946
0.000236538
0.0109584
0.000255015
0.0109705
0.000281121
0.0109823
0.000302156
0.0109935
0.000336333
0.0110057
0.000360689
0.0110158
0.000403543
0.0110293
0.00043314
0.0110392
0.000484255
0.0110536
0.000521453
0.0110645
0.000580857
0.0110799
0.000626336
0.0110909
0.000696053
0.0111068
0.000749755
0.0111168
0.000831719
0.0111292
0.000896156
0.0111368
0.000991864
0.0111447
0.00106818
0.0111424
0.0011813
0.0111436
0.00127213
0.011126
0.00140587
0.0111116
0.00152035
0.0110775
0.00168042
0.0110498
0.00181986
0.0109981
0.00201505
0.0109559
0.00217121
0.0108649
0.00240308
0.0107683
0.00257501
0.0106217
0.00283403
0.0104627
0.00300509
0.0102669
0.00325679
0.0034172
0.00997582
0.0100021
3.61456e-06
0.0100079
1.05419e-05
0.0100175
1.74039e-05
0.0100305
2.34705e-05
0.010046
2.90948e-05
0.0100635
3.33432e-05
0.0100821
3.64115e-05
0.0101015
3.89052e-05
0.0101214
4.04596e-05
0.0101418
4.16704e-05
0.0101626
4.28122e-05
0.0101839
4.3691e-05
0.0102057
4.53374e-05
0.0102281
4.61835e-05
0.0102506
4.76096e-05
0.0102736
4.85379e-05
0.0102965
4.95316e-05
0.0103198
5.05037e-05
0.010343
5.1022e-05
0.0103663
5.21884e-05
0.0103897
5.27334e-05
0.010413
5.41034e-05
0.0104365
5.47094e-05
0.0104597
5.62126e-05
0.010483
5.73081e-05
0.0105061
5.88336e-05
0.0105292
6.03875e-05
0.010552
6.18599e-05
0.0105746
6.40105e-05
0.0105972
6.58678e-05
0.0106193
6.85078e-05
0.0106415
7.08104e-05
0.0106629
7.40486e-05
0.0106844
7.70279e-05
0.0107053
8.11943e-05
0.0107259
8.50516e-05
0.0107462
9.01094e-05
0.0107658
9.52884e-05
0.0107853
0.000101415
0.0108039
0.00010824
0.0108225
0.000115887
0.0108402
0.000124345
0.0108576
0.000134276
0.0108748
0.000144409
0.0108907
0.000157462
0.0109075
0.000169485
0.0109223
0.000186408
0.0109385
0.000200749
0.0109525
0.000222515
0.0109682
0.000239346
0.0109819
0.000267446
0.0109972
0.00028686
0.0110112
0.000322259
0.0110258
0.000346084
0.0110417
0.000387655
0.0110556
0.000419301
0.0110737
0.000466135
0.0110879
0.000507258
0.0111082
0.000560592
0.0111225
0.000612008
0.0111453
0.000673275
0.0111595
0.00073553
0.0111814
0.000809814
0.011198
0.000879598
0.0112156
0.00097419
0.0112317
0.00105207
0.011245
0.001168
0.0112555
0.00126166
0.0112596
0.00140175
0.0112634
0.00151657
0.0112579
0.0016859
0.0112499
0.00182784
0.0112381
0.00202689
0.0112098
0.00219953
0.0111817
0.00243113
0.0111231
0.00263366
0.01107
0.00288715
0.0109646
0.00311047
0.0108603
0.00336103
0.00361857
0.010659
0.0100019
1.74946e-06
0.0100072
5.21412e-06
0.010016
8.59978e-06
0.0100278
1.1673e-05
0.0100424
1.45223e-05
0.010059
1.67165e-05
0.010077
1.83953e-05
0.0100961
1.98139e-05
0.0101159
2.06909e-05
0.0101362
2.13852e-05
0.0101568
2.21416e-05
0.0101779
2.25732e-05
0.0101995
2.37632e-05
0.0102217
2.39777e-05
0.010244
2.52931e-05
0.010267
2.55658e-05
0.0102898
2.67296e-05
0.0103132
2.70736e-05
0.0103363
2.79549e-05
0.0103598
2.86718e-05
0.010383
2.95211e-05
0.0104066
3.0529e-05
0.0104299
3.14249e-05
0.0104534
3.27329e-05
0.0104766
3.41145e-05
0.0104999
3.54696e-05
0.010523
3.7325e-05
0.0105461
3.87517e-05
0.0105689
4.11964e-05
0.0105916
4.32278e-05
0.0106142
4.58457e-05
0.0106362
4.88187e-05
0.0106587
5.16089e-05
0.0106799
5.58051e-05
0.0107018
5.92516e-05
0.0107225
6.44152e-05
0.0107436
6.89965e-05
0.0107637
7.51518e-05
0.0107838
8.12934e-05
0.0108034
8.86854e-05
0.0108226
9.66521e-05
0.0108415
0.000105462
0.0108599
0.000115867
0.0108782
0.00012611
0.0108958
0.000139878
0.0109136
0.000151674
0.0109308
0.000169255
0.0109477
0.000183814
0.0109654
0.00020478
0.0109809
0.000223835
0.011
0.000248382
0.0110148
0.000272107
0.0110344
0.000302609
0.0110504
0.000330058
0.01107
0.000368055
0.0110879
0.000401418
0.0111088
0.000445215
0.0111284
0.000487682
0.0111502
0.00053876
0.0111737
0.000588539
0.0111951
0.000651872
0.0112205
0.000710104
0.0112459
0.000784452
0.0112683
0.0008572
0.011297
0.000945453
0.0113192
0.00102989
0.0113446
0.00114259
0.0113647
0.00124157
0.0113885
0.00137797
0.0114004
0.00150466
0.0114214
0.00166488
0.0114238
0.00182545
0.0114372
0.00201348
0.0114245
0.00221225
0.0114244
0.00243123
0.0113913
0.00266674
0.0113668
0.00291172
0.0112972
0.00318006
0.0112116
0.00344659
0.00373217
0.011098
0.0100017
3.44697e-08
0.0100069
5.74543e-08
0.0100152
2.49996e-07
0.0100266
2.87178e-07
0.0100407
4.70238e-07
0.0100569
5.02097e-07
0.0100746
6.90782e-07
0.0100935
8.72486e-07
0.0101132
1.00538e-06
0.0101335
1.1326e-06
0.0101541
1.51374e-06
0.0101751
1.52922e-06
0.0101967
2.22369e-06
0.0102187
1.91145e-06
0.0102411
2.96796e-06
0.010264
2.62999e-06
0.0102868
3.88744e-06
0.0103103
3.56469e-06
0.0103334
4.90096e-06
0.0103571
5.0109e-06
0.0103803
6.29819e-06
0.010404
6.85638e-06
0.0104273
8.04352e-06
0.0104508
9.26895e-06
0.0104743
1.06125e-05
0.0104976
1.21882e-05
0.0105211
1.38151e-05
0.0105442
1.56926e-05
0.0105674
1.79699e-05
0.0105903
2.03303e-05
0.0106131
2.30243e-05
0.0106358
2.61257e-05
0.0106581
2.93042e-05
0.0106804
3.35403e-05
0.0107021
3.7509e-05
0.0107239
4.26082e-05
0.010745
4.79216e-05
0.0107663
5.38512e-05
0.0107867
6.09039e-05
0.0108073
6.80623e-05
0.0108273
7.66372e-05
0.010847
8.57594e-05
0.0108669
9.5939e-05
0.0108858
0.000107296
0.0109056
0.000120057
0.010924
0.000133298
0.0109435
0.000149705
0.0109619
0.000165403
0.0109812
0.000185482
0.0110002
0.000204833
0.0110193
0.000229298
0.0110396
0.000251848
0.0110586
0.000283553
0.011081
0.000307674
0.0110999
0.000349128
0.0111259
0.00037544
0.0111447
0.000426393
0.011174
0.000458363
0.0111957
0.000517117
0.0112255
0.000558695
0.0112521
0.000625301
0.0112833
0.00067891
0.0113131
0.000754657
0.0113453
0.000824972
0.0113812
0.000909528
0.0114098
0.0010013
0.0114506
0.00110182
0.011479
0.00121318
0.0115173
0.00133969
0.0115463
0.00147566
0.0115795
0.00163167
0.0116049
0.00180001
0.0116291
0.00198934
0.0116422
0.00219915
0.011652
0.00242139
0.0116485
0.00267021
0.0116229
0.00293736
0.0115908
0.00321219
0.0115131
0.00352428
0.00382622
0.011419
0.0100016
-1.60389e-06
0.0100069
-5.20931e-06
0.0100151
-7.95237e-06
0.0100267
-1.12608e-05
0.0100406
-1.34557e-05
0.0100569
-1.57994e-05
0.0100745
-1.69716e-05
0.0100935
-1.81309e-05
0.0101132
-1.86708e-05
0.0101335
-1.91405e-05
0.0101542
-1.91604e-05
0.0101753
-1.95511e-05
0.0101969
-1.94562e-05
0.0102189
-2.00794e-05
0.0102415
-1.95934e-05
0.0102643
-2.01805e-05
0.0102875
-1.92759e-05
0.0103108
-1.97317e-05
0.0103342
-1.84946e-05
0.0103576
-1.84741e-05
0.0103812
-1.72902e-05
0.0104047
-1.66662e-05
0.0104284
-1.5651e-05
0.0104519
-1.42255e-05
0.0104756
-1.31012e-05
0.0104992
-1.14067e-05
0.0105227
-9.66139e-06
0.0105464
-8.03499e-06
0.0105694
-5.01195e-06
0.0105932
-3.48505e-06
0.0106159
4.13834e-07
0.0106393
2.65563e-06
0.0106619
6.75246e-06
0.0106844
1.10268e-05
0.0107072
1.47338e-05
0.0107286
2.11534e-05
0.0107514
2.51912e-05
0.0107721
3.30796e-05
0.0107943
3.87101e-05
0.0108148
4.75632e-05
0.0108364
5.50735e-05
0.0108567
6.54332e-05
0.0108777
7.49274e-05
0.0108982
8.68454e-05
0.0109183
9.98803e-05
0.0109397
0.0001119
0.0109588
0.000130629
0.0109812
0.000143042
0.0110005
0.000166123
0.0110225
0.00018288
0.0110441
0.000207718
0.0110654
0.000230556
0.0110892
0.000259734
0.0111113
0.000285575
0.0111377
0.000322674
0.0111602
0.000352977
0.0111914
0.00039521
0.0112151
0.000434632
0.0112485
0.000483705
0.0112786
0.000528622
0.0113122
0.000591673
0.0113475
0.000643647
0.0113861
0.000716025
0.0114237
0.000787358
0.0114668
0.00086649
0.0115093
0.000958772
0.0115551
0.00105603
0.0116009
0.00116741
0.0116494
0.00129118
0.0116964
0.00142859
0.0117448
0.00158328
0.0117906
0.00175427
0.0118293
0.00195061
0.0118709
0.00215755
0.0118907
0.0024016
0.0119087
0.00265221
0.011907
0.00293907
0.0118777
0.00324149
0.0118327
0.00356928
0.00391253
0.0117464
0.0100018
-3.42201e-06
0.0100073
-1.06528e-05
0.0100159
-1.65829e-05
0.0100279
-2.32292e-05
0.0100423
-2.79408e-05
0.010059
-3.24475e-05
0.0100771
-3.50471e-05
0.0100961
-3.72099e-05
0.0101161
-3.86158e-05
0.0101362
-3.92516e-05
0.0101572
-4.01988e-05
0.0101782
-4.05008e-05
0.0102003
-4.16124e-05
0.0102222
-4.19362e-05
0.0102452
-4.26194e-05
0.0102679
-4.28742e-05
0.0102914
-4.27357e-05
0.0103147
-4.30161e-05
0.0103382
-4.19802e-05
0.0103619
-4.22105e-05
0.0103854
-4.07682e-05
0.0104093
-4.06333e-05
0.0104329
-3.923e-05
0.0104568
-3.81398e-05
0.0104807
-3.70078e-05
0.0105044
-3.50994e-05
0.0105285
-3.378e-05
0.010552
-3.14948e-05
0.010576
-2.89878e-05
0.0105995
-2.6976e-05
0.010623
-2.31105e-05
0.0106465
-2.08417e-05
0.0106695
-1.6274e-05
0.0106927
-1.2174e-05
0.0107155
-8.07307e-06
0.0107382
-1.51302e-06
0.0107606
2.76696e-06
0.0107832
1.05064e-05
0.0108046
1.72557e-05
0.0108277
2.45499e-05
0.0108483
3.44056e-05
0.0108713
4.24742e-05
0.0108922
5.40375e-05
0.0109143
6.47082e-05
0.0109363
7.79369e-05
0.0109576
9.0525e-05
0.0109804
0.000107852
0.0110019
0.000121576
0.0110256
0.000142404
0.0110468
0.000161656
0.0110734
0.000181102
0.0110933
0.000210675
0.0111236
0.000229402
0.0111448
0.000264393
0.0111756
0.00029194
0.0112025
0.000325999
0.0112337
0.000364069
0.011264
0.000404324
0.0113012
0.000446511
0.0113337
0.000496085
0.0113739
0.000551501
0.0114167
0.000600818
0.0114561
0.000676665
0.0115076
0.000735861
0.011554
0.000820118
0.011609
0.00090372
0.0116631
0.00100192
0.0117249
0.00110562
0.0117838
0.00123233
0.0118524
0.00135992
0.0119122
0.00152356
0.0119843
0.00168216
0.0120427
0.00189215
0.0121044
0.00209591
0.0121542
0.00235175
0.01219
0.00261638
0.0122109
0.00291819
0.0122116
0.0032408
0.0121709
0.00360996
0.00397172
0.0121117
0.0100022
-5.64594e-06
0.0100079
-1.63045e-05
0.0100177
-2.64216e-05
0.0100305
-3.60395e-05
0.0100463
-4.37145e-05
0.0100636
-4.97138e-05
0.0100824
-5.39251e-05
0.0101017
-5.64442e-05
0.0101219
-5.88765e-05
0.010142
-5.93483e-05
0.0101634
-6.1576e-05
0.0101845
-6.15855e-05
0.0102071
-6.41855e-05
0.0102291
-6.39841e-05
0.0102524
-6.59356e-05
0.0102753
-6.5709e-05
0.0102988
-6.63007e-05
0.0103223
-6.64649e-05
0.0103458
-6.55109e-05
0.0103698
-6.61889e-05
0.0103933
-6.43261e-05
0.0104176
-6.48477e-05
0.0104414
-6.30486e-05
0.0104655
-6.22357e-05
0.0104898
-6.13429e-05
0.0105136
-5.88494e-05
0.0105382
-5.84184e-05
0.0105618
-5.50943e-05
0.0105861
-5.33085e-05
0.0106102
-5.10556e-05
0.0106335
-4.64445e-05
0.0106583
-4.56134e-05
0.0106806
-3.85858e-05
0.0107056
-3.71611e-05
0.0107277
-3.01288e-05
0.0107519
-2.57857e-05
0.0107744
-1.97393e-05
0.0107975
-1.25726e-05
0.0108207
-5.93209e-06
0.0108428
2.42701e-06
0.0108668
1.0409e-05
0.0108877
2.16047e-05
0.0109131
2.86075e-05
0.0109328
4.49988e-05
0.0109594
5.13457e-05
0.0109794
7.05757e-05
0.0110053
8.19529e-05
0.011028
9.88082e-05
0.011052
0.000118417
0.0110781
0.000135562
0.0111018
0.000157476
0.01113
0.000182413
0.0111556
0.000203816
0.0111854
0.000234574
0.0112146
0.000262753
0.0112462
0.000294383
0.0112803
0.000329943
0.0113144
0.0003703
0.0113546
0.000406312
0.0113919
0.00045879
0.0114389
0.000504472
0.0114819
0.000557822
0.0115345
0.000624039
0.0115863
0.0006841
0.011646
0.00076042
0.0117063
0.000843381
0.0117754
0.000932825
0.0118445
0.00103657
0.0119266
0.00115023
0.0119982
0.00128827
0.0120979
0.00142385
0.0121689
0.00161118
0.0122731
0.00178799
0.0123467
0.00202224
0.0124341
0.00226439
0.0124983
0.0025522
0.0125477
0.0028688
0.0125754
0.00321313
0.0125664
0.00361887
0.00402756
0.0125106
0.0100025
-8.18991e-06
0.0100091
-2.28867e-05
0.0100206
-3.78796e-05
0.0100353
-5.0786e-05
0.0100527
-6.10379e-05
0.0100714
-6.84115e-05
0.0100906
-7.32196e-05
0.0101107
-7.64865e-05
0.0101306
-7.88189e-05
0.0101515
-8.02528e-05
0.0101727
-8.27854e-05
0.0101948
-8.3655e-05
0.0102174
-8.67754e-05
0.0102401
-8.67234e-05
0.0102636
-8.93446e-05
0.0102867
-8.88852e-05
0.0103104
-8.99394e-05
0.0103341
-9.01734e-05
0.0103576
-8.90403e-05
0.0103821
-9.06966e-05
0.0104053
-8.75499e-05
0.0104306
-9.0119e-05
0.0104537
-8.61186e-05
0.0104792
-8.77829e-05
0.0105027
-8.47942e-05
0.0105277
-8.38792e-05
0.010552
-8.27199e-05
0.0105761
-7.91502e-05
0.0106012
-7.84086e-05
0.0106246
-7.45307e-05
0.0106498
-7.15956e-05
0.0106733
-6.91047e-05
0.0106979
-6.32392e-05
0.0107215
-6.07368e-05
0.010746
-5.46249e-05
0.010769
-4.8819e-05
0.0107939
-4.46174e-05
0.0108163
-3.49137e-05
0.0108413
-3.0943e-05
0.0108638
-2.01314e-05
0.010888
-1.37632e-05
0.0109118
-2.14837e-06
0.0109353
5.05313e-06
0.0109597
2.0638e-05
0.0109835
2.7511e-05
0.0110085
4.56153e-05
0.0110321
5.82786e-05
0.0110596
7.13259e-05
0.0110821
9.59088e-05
0.0111119
0.000105788
0.011137
0.000132371
0.011165
0.00015444
0.0111967
0.000172056
0.0112246
0.000206677
0.0112581
0.000229274
0.011294
0.000258465
0.0113272
0.000296748
0.011368
0.000329502
0.0114112
0.000363165
0.0114503
0.000419628
0.0115054
0.000449364
0.0115503
0.000512991
0.0116114
0.000562931
0.0116673
0.000628134
0.0117374
0.000690325
0.0118028
0.000778007
0.0118869
0.000848733
0.0119657
0.000957743
0.0120599
0.0010561
0.0121578
0.0011903
0.0122648
0.00131684
0.0123772
0.00149888
0.012491
0.0016741
0.0126171
0.00189621
0.0127206
0.00216082
0.0128357
0.00243712
0.0129244
0.00278012
0.0129775
0.00316004
0.0130189
0.00357745
0.00407663
0.0129698
0.0100028
-1.09443e-05
0.0100119
-3.2007e-05
0.0100253
-5.13316e-05
0.0100435
-6.8914e-05
0.0100623
-7.98948e-05
0.0100831
-8.91921e-05
0.0101023
-9.24229e-05
0.0101235
-9.76876e-05
0.0101429
-9.82292e-05
0.0101651
-0.000102482
0.0101862
-0.000103861
0.0102096
-0.000107091
0.0102321
-0.000109246
0.0102559
-0.000110519
0.0102792
-0.000112621
0.010303
-0.000112663
0.0103266
-0.000113599
0.0103507
-0.000114202
0.0103745
-0.000112844
0.0103992
-0.000115388
0.0104228
-0.000111224
0.0104482
-0.000115531
0.0104719
-0.000109731
0.0104974
-0.00011335
0.0105216
-0.000109015
0.0105463
-0.000108552
0.0105719
-0.000108336
0.010595
-0.000102225
0.0106221
-0.000105499
0.0106442
-9.66125e-05
0.0106715
-9.88716e-05
0.0106941
-9.17417e-05
0.0107199
-8.90316e-05
0.0107443
-8.51986e-05
0.0107679
-7.82259e-05
0.0107943
-7.5179e-05
0.0108159
-6.61696e-05
0.010844
-6.30385e-05
0.0108636
-5.0592e-05
0.0108935
-5.00235e-05
0.010912
-3.22884e-05
0.0109423
-3.23524e-05
0.0109626
-1.53432e-05
0.0109895
-6.25684e-06
0.0110154
1.68996e-06
0.0110377
2.3258e-05
0.0110683
2.76868e-05
0.0110904
4.92036e-05
0.01112
6.63317e-05
0.0111478
7.79803e-05
0.0111746
0.000105573
0.0112073
0.000121782
0.0112364
0.00014297
0.0112707
0.000172335
0.0113035
0.00019652
0.0113441
0.000217776
0.011377
0.000263868
0.0114259
0.000280626
0.0114657
0.00032339
0.0115162
0.000369114
0.0115683
0.00039724
0.0116246
0.000456675
0.0116843
0.000503262
0.011754
0.000558466
0.0118218
0.000622532
0.0119084
0.00069135
0.0119855
0.000771691
0.012094
0.000849195
0.0121833
0.000966767
0.0123186
0.00105504
0.0124264
0.001209
0.0125765
0.00134882
0.0127259
0.00152466
0.0128693
0.00175286
0.0130469
0.00198326
0.0131775
0.00230643
0.0133372
0.00262047
0.0134353
0.00306192
0.0135295
0.00348326
0.0040849
0.0135212
0.0100038
-1.47749e-05
0.0100168
-4.49938e-05
0.0100346
-6.91613e-05
0.0100566
-9.08186e-05
0.0100778
-0.000101142
0.0100994
-0.000110828
0.0101193
-0.000112247
0.0101406
-0.000119056
0.0101611
-0.000118687
0.010184
-0.00012539
0.0102062
-0.000126076
0.0102301
-0.000130978
0.0102536
-0.00013273
0.0102773
-0.000134233
0.0103016
-0.000136927
0.0103246
-0.000135699
0.0103499
-0.000138838
0.0103725
-0.000136831
0.0103986
-0.000138965
0.0104213
-0.000138064
0.0104477
-0.000137673
0.010471
-0.000138805
0.0104971
-0.000135763
0.0105212
-0.000137508
0.0105467
-0.000134484
0.0105713
-0.000133189
0.0105968
-0.000133803
0.010621
-0.000126416
0.0106473
-0.000131772
0.0106704
-0.000119806
0.0106975
-0.000125954
0.01072
-0.000114228
0.0107473
-0.000116306
0.0107698
-0.000107693
0.0107967
-0.000105168
0.0108195
-9.79487e-05
0.0108458
-9.24958e-05
0.0108693
-8.65445e-05
0.0108943
-7.56146e-05
0.0109196
-7.52514e-05
0.010943
-5.56904e-05
0.0109693
-5.87207e-05
0.0109935
-3.94558e-05
0.0110182
-3.10119e-05
0.0110462
-2.62834e-05
0.0110683
1.1459e-06
0.0110994
-3.42142e-06
0.0111226
2.60246e-05
0.0111536
3.53308e-05
0.0111803
5.12517e-05
0.011213
7.28866e-05
0.0112402
9.46285e-05
0.0112803
0.000102844
0.0113049
0.000147703
0.0113535
0.000147915
0.0113819
0.00018935
0.0114315
0.00021431
0.011472
0.000240079
0.0115228
0.000272652
0.0115731
0.00031882
0.0116306
0.000339687
0.0116926
0.000394734
0.0117558
0.000440007
0.0118306
0.000483735
0.0119128
0.000540331
0.0119914
0.000612676
0.0121032
0.000659956
0.0121927
0.0007597
0.0123277
0.000831718
0.012442
0.000940727
0.0126123
0.00103874
0.0127476
0.00121348
0.012965
0.00130729
0.013127
0.00159084
0.013369
0.00174131
0.0135695
0.00210586
0.0137654
0.00242461
0.0139633
0.00286407
0.0141023
0.00334421
0.00398981
0.0141974
0.0100069
-2.1628e-05
0.0100268
-6.4917e-05
0.010052
-9.43626e-05
0.010077
-0.000115807
0.0101007
-0.000124876
0.0101224
-0.000132553
0.0101439
-0.000133732
0.0101648
-0.00013991
0.0101877
-0.000141597
0.0102106
-0.000148353
0.0102352
-0.00015059
0.0102588
-0.00015463
0.0102833
-0.000157277
0.0103067
-0.000157585
0.010331
-0.000161205
0.0103541
-0.000158868
0.0103786
-0.000163331
0.0104018
-0.000159997
0.0104267
-0.000163843
0.0104499
-0.000161245
0.0104749
-0.000162693
0.0104982
-0.000162145
0.0105227
-0.000160288
0.0105466
-0.000161368
0.0105702
-0.00015808
0.0105947
-0.000157669
0.0106173
-0.000156425
0.010642
-0.000151148
0.0106644
-0.000154104
0.0106884
-0.000143839
0.0107113
-0.000148861
0.0107337
-0.000136576
0.0107579
-0.000140509
0.0107784
-0.000128182
0.0108034
-0.000130213
0.0108236
-0.000118123
0.0108469
-0.000115779
0.0108706
-0.000110337
0.0108878
-9.27754e-05