/*--------------------------------*- C++ -*----------------------------------*\
| =========                 |                                                 |
| \\      /  F ield         | OpenFOAM: The Open Source CFD Toolbox           |
|  \\    /   O peration     | Version:  2306                                  |
|   \\  /    A nd           | Website:  www.openfoam.com                      |
|    \\/     M anipulation  |                                                 |
\*---------------------------------------------------------------------------*/
FoamFile
{
    version     2.0;
    format      ascii;
    arch        "LSB;label=32;scalar=64";
    class       volVectorField;
    location    "0.15";
    object      U;
}
// * * * * * * * * * * * * * * * * * * * * * * * * * * * * * * * * * * * * * //

dimensions      [0 1 -1 0 0 0 0];

internalField   nonuniform List<vector> 
4400
(
(9.90179 0.0455193 0)
(9.80627 0.0987133 0)
(9.70008 0.120953 0)
(9.57022 0.125797 0)
(9.4182 0.124474 0)
(9.2522 0.12345 0)
(9.08063 0.124135 0)
(8.90831 0.125687 0)
(8.73726 0.126973 0)
(8.56791 0.127398 0)
(8.40014 0.126865 0)
(8.23357 0.125535 0)
(8.06799 0.123751 0)
(7.90351 0.121708 0)
(7.74014 0.119635 0)
(7.578 0.117514 0)
(7.41722 0.115374 0)
(7.25808 0.113214 0)
(7.1006 0.110982 0)
(6.94487 0.108725 0)
(6.79096 0.106347 0)
(6.63912 0.103923 0)
(6.48922 0.101477 0)
(6.34142 0.0989887 0)
(6.19569 0.0964417 0)
(6.05224 0.0939013 0)
(5.91103 0.0913337 0)
(5.77201 0.0888213 0)
(5.63533 0.0862843 0)
(5.50094 0.083732 0)
(5.36892 0.0812956 0)
(5.2392 0.0788658 0)
(5.11171 0.0765208 0)
(4.98646 0.0742019 0)
(4.86332 0.0719806 0)
(4.74219 0.0698608 0)
(4.62293 0.0678854 0)
(4.50533 0.0660394 0)
(4.38923 0.0643944 0)
(4.27432 0.0629654 0)
(4.1604 0.0618103 0)
(4.04693 0.060964 0)
(3.93375 0.0604853 0)
(3.82015 0.0603678 0)
(3.70586 0.0607538 0)
(3.59017 0.0615512 0)
(3.47251 0.0629144 0)
(3.35214 0.0647756 0)
(3.22809 0.0673265 0)
(3.09988 0.0704127 0)
(2.96599 0.0742609 0)
(2.82589 0.0787825 0)
(2.67799 0.0840688 0)
(2.52129 0.0902156 0)
(2.35457 0.096982 0)
(2.17609 0.104647 0)
(1.98511 0.112854 0)
(1.77945 0.121557 0)
(1.559 0.130485 0)
(1.32136 0.138961 0)
(1.06754 0.146694 0)
(0.795976 0.151903 0)
(0.509384 0.154136 0)
(0.208677 0.15111 0)
(-0.10212 0.144313 0)
(-0.427053 0.115479 0)
(-0.735319 0.0148399 0)
(-0.963951 -0.176809 0)
(-1.02926 -0.386596 0)
(-0.944025 -0.584262 0)
(-0.727645 -0.759041 0)
(-0.390855 -0.886446 0)
(-0.0454444 -0.741066 0)
(0.149183 -0.178815 0)
(0.15434 0.542945 0)
(-0.0247591 0.929638 0)
(-0.0634754 0.653297 0)
(0.271222 0.157216 0)
(0.420624 -0.13786 0)
(0.182504 -0.304673 0)
(10.0003 0.0611949 0)
(10.0318 0.137446 0)
(10.0696 0.173594 0)
(10.105 0.184956 0)
(10.1325 0.186151 0)
(10.1501 0.186213 0)
(10.1589 0.188288 0)
(10.1611 0.191949 0)
(10.159 0.195894 0)
(10.154 0.199082 0)
(10.1466 0.201078 0)
(10.1371 0.201997 0)
(10.1251 0.202087 0)
(10.111 0.201752 0)
(10.0941 0.20126 0)
(10.075 0.200631 0)
(10.0532 0.199978 0)
(10.0294 0.199242 0)
(10.0033 0.198434 0)
(9.97525 0.197502 0)
(9.94501 0.196438 0)
(9.91314 0.195187 0)
(9.87925 0.193938 0)
(9.84365 0.192491 0)
(9.80633 0.190974 0)
(9.76719 0.189405 0)
(9.72673 0.187669 0)
(9.68423 0.186079 0)
(9.64054 0.184234 0)
(9.59496 0.182496 0)
(9.54813 0.180686 0)
(9.49961 0.178909 0)
(9.44957 0.177206 0)
(9.39796 0.175503 0)
(9.34477 0.173871 0)
(9.2899 0.172447 0)
(9.23339 0.171083 0)
(9.17488 0.170073 0)
(9.11471 0.169157 0)
(9.05209 0.168745 0)
(8.98767 0.168524 0)
(8.92029 0.168941 0)
(8.85058 0.169753 0)
(8.77756 0.171249 0)
(8.70119 0.173544 0)
(8.62133 0.176473 0)
(8.53658 0.180728 0)
(8.44814 0.18556 0)
(8.35288 0.192162 0)
(8.25332 0.199593 0)
(8.14508 0.208867 0)
(8.03091 0.219654 0)
(7.90675 0.231999 0)
(7.77342 0.246836 0)
(7.6295 0.262821 0)
(7.47188 0.281998 0)
(7.30279 0.302225 0)
(7.11547 0.325677 0)
(6.91394 0.3501 0)
(6.69129 0.377267 0)
(6.44887 0.40454 0)
(6.18419 0.433731 0)
(5.89323 0.460543 0)
(5.5785 0.487637 0)
(5.23352 0.507725 0)
(4.85898 0.520752 0)
(4.45444 0.514192 0)
(4.02734 0.476225 0)
(3.5421 0.408127 0)
(2.97988 0.336696 0)
(2.22413 0.266124 0)
(1.27045 0.268059 0)
(0.024891 0.249736 0)
(-0.872367 -0.0426549 0)
(-1.11768 -0.410462 0)
(-0.989322 -0.750553 0)
(-0.698454 -1.05751 0)
(-0.554508 -0.704041 0)
(-0.34211 0.316995 0)
(-0.324995 0.774204 0)
(10.0002 0.0267642 0)
(10.0166 0.0697619 0)
(10.0429 0.0998226 0)
(10.0748 0.117579 0)
(10.1082 0.126729 0)
(10.1395 0.131904 0)
(10.167 0.135857 0)
(10.1913 0.140367 0)
(10.2126 0.145271 0)
(10.2334 0.150354 0)
(10.2531 0.15487 0)
(10.2735 0.158646 0)
(10.2932 0.161653 0)
(10.3133 0.16397 0)
(10.3324 0.166083 0)
(10.3513 0.167664 0)
(10.3691 0.169303 0)
(10.3864 0.170713 0)
(10.4027 0.172057 0)
(10.4183 0.1733 0)
(10.4329 0.174312 0)
(10.447 0.17524 0)
(10.46 0.176088 0)
(10.4721 0.176729 0)
(10.4834 0.177258 0)
(10.4935 0.177781 0)
(10.5029 0.178046 0)
(10.5108 0.178536 0)
(10.5178 0.178702 0)
(10.5236 0.178934 0)
(10.5281 0.179303 0)
(10.5315 0.179365 0)
(10.5333 0.18001 0)
(10.534 0.180147 0)
(10.5329 0.180978 0)
(10.5306 0.181551 0)
(10.5264 0.182788 0)
(10.5206 0.183983 0)
(10.5131 0.18587 0)
(10.5035 0.187952 0)
(10.4921 0.1908 0)
(10.4784 0.194125 0)
(10.4621 0.19836 0)
(10.4441 0.203293 0)
(10.4221 0.209523 0)
(10.399 0.216548 0)
(10.3704 0.225502 0)
(10.341 0.235188 0)
(10.3052 0.247635 0)
(10.2676 0.260727 0)
(10.2235 0.277417 0)
(10.1757 0.295025 0)
(10.1218 0.316384 0)
(10.0615 0.340027 0)
(9.99531 0.366536 0)
(9.92008 0.397252 0)
(9.83849 0.429954 0)
(9.74458 0.467708 0)
(9.64434 0.507851 0)
(9.52648 0.551342 0)
(9.40366 0.599281 0)
(9.25508 0.645831 0)
(9.1039 0.699031 0)
(8.91595 0.743252 0)
(8.72629 0.793149 0)
(8.48454 0.821493 0)
(8.23532 0.849035 0)
(7.91474 0.840046 0)
(7.56698 0.838193 0)
(7.12871 0.827376 0)
(6.65244 0.882034 0)
(6.0811 0.966115 0)
(5.46789 1.1218 0)
(4.76432 1.08253 0)
(4.04051 0.924403 0)
(3.02596 0.631797 0)
(1.64496 0.383819 0)
(-0.232771 -0.113826 0)
(-1.12132 -0.372188 0)
(-1.1675 -0.21002 0)
(10.0002 0.0188764 0)
(10.0099 0.0526271 0)
(10.0278 0.0806021 0)
(10.0511 0.101299 0)
(10.0778 0.114584 0)
(10.1054 0.1232 0)
(10.1315 0.128328 0)
(10.1565 0.132537 0)
(10.1792 0.136264 0)
(10.2017 0.140202 0)
(10.2233 0.14402 0)
(10.2458 0.147381 0)
(10.268 0.150297 0)
(10.2915 0.15258 0)
(10.3145 0.154538 0)
(10.3381 0.155873 0)
(10.3613 0.157242 0)
(10.3848 0.158292 0)
(10.4077 0.159427 0)
(10.4309 0.160312 0)
(10.4533 0.161258 0)
(10.4763 0.162008 0)
(10.4985 0.162952 0)
(10.5206 0.163511 0)
(10.5427 0.164208 0)
(10.5639 0.164939 0)
(10.5856 0.165309 0)
(10.6057 0.166396 0)
(10.6265 0.166484 0)
(10.6455 0.16771 0)
(10.6653 0.168048 0)
(10.6831 0.169298 0)
(10.7013 0.17011 0)
(10.7178 0.171516 0)
(10.7342 0.172786 0)
(10.7493 0.174816 0)
(10.7636 0.176626 0)
(10.7768 0.179617 0)
(10.7888 0.182078 0)
(10.7997 0.186495 0)
(10.8094 0.189868 0)
(10.8176 0.196091 0)
(10.8246 0.201096 0)
(10.83 0.209017 0)
(10.8334 0.217014 0)
(10.8364 0.2263 0)
(10.8349 0.238721 0)
(10.8356 0.249689 0)
(10.8286 0.267058 0)
(10.826 0.281427 0)
(10.8143 0.303177 0)
(10.8058 0.323702 0)
(10.7907 0.349123 0)
(10.7743 0.378028 0)
(10.7552 0.408071 0)
(10.731 0.44551 0)
(10.705 0.482796 0)
(10.6738 0.528104 0)
(10.6381 0.573937 0)
(10.5978 0.62783 0)
(10.5524 0.680452 0)
(10.496 0.743111 0)
(10.4405 0.799615 0)
(10.3591 0.865675 0)
(10.2836 0.921411 0)
(10.165 0.981671 0)
(10.0483 1.028 0)
(9.87025 1.084 0)
(9.6907 1.12936 0)
(9.43502 1.2091 0)
(9.17667 1.29015 0)
(8.83998 1.40999 0)
(8.48175 1.51288 0)
(8.03589 1.56695 0)
(7.51422 1.55878 0)
(6.88203 1.54917 0)
(6.13867 1.59752 0)
(5.19543 1.69296 0)
(4.06618 1.54122 0)
(2.65597 1.19629 0)
(10.0002 0.013472 0)
(10.0067 0.0383526 0)
(10.0197 0.0604412 0)
(10.0369 0.0779417 0)
(10.0583 0.090313 0)
(10.0818 0.0991061 0)
(10.1055 0.104269 0)
(10.1291 0.108276 0)
(10.1517 0.111293 0)
(10.174 0.11427 0)
(10.1957 0.117391 0)
(10.2177 0.12008 0)
(10.2398 0.122873 0)
(10.2628 0.12512 0)
(10.2857 0.127094 0)
(10.3092 0.128601 0)
(10.3326 0.12998 0)
(10.3564 0.131161 0)
(10.3798 0.132317 0)
(10.4037 0.13324 0)
(10.4266 0.134355 0)
(10.4509 0.1352 0)
(10.4736 0.136461 0)
(10.4975 0.137024 0)
(10.5203 0.138335 0)
(10.5436 0.138984 0)
(10.5666 0.140223 0)
(10.5889 0.141177 0)
(10.6116 0.142195 0)
(10.6331 0.143495 0)
(10.6555 0.14479 0)
(10.6758 0.146249 0)
(10.6977 0.148117 0)
(10.7166 0.149742 0)
(10.7379 0.152338 0)
(10.7554 0.154568 0)
(10.7756 0.157988 0)
(10.7915 0.161014 0)
(10.8104 0.165636 0)
(10.8247 0.169695 0)
(10.8418 0.175871 0)
(10.8549 0.181615 0)
(10.8694 0.189257 0)
(10.8815 0.19779 0)
(10.8928 0.206917 0)
(10.9044 0.218934 0)
(10.9116 0.23075 0)
(10.9233 0.245691 0)
(10.9252 0.262703 0)
(10.9381 0.279702 0)
(10.9337 0.303862 0)
(10.9479 0.32413 0)
(10.9378 0.354613 0)
(10.9521 0.382525 0)
(10.9378 0.416613 0)
(10.9506 0.456399 0)
(10.9338 0.494136 0)
(10.9442 0.544786 0)
(10.9237 0.59176 0)
(10.9347 0.647483 0)
(10.9054 0.708406 0)
(10.9183 0.768072 0)
(10.8783 0.836468 0)
(10.8834 0.905782 0)
(10.8331 0.97253 0)
(10.8159 1.04904 0)
(10.7443 1.12305 0)
(10.697 1.19924 0)
(10.5873 1.30157 0)
(10.4991 1.38629 0)
(10.3438 1.52153 0)
(10.196 1.62806 0)
(9.9859 1.77396 0)
(9.75471 1.88218 0)
(9.46161 1.99998 0)
(9.10117 2.09606 0)
(8.66825 2.19539 0)
(8.11035 2.28256 0)
(7.41571 2.3358 0)
(6.56777 2.3442 0)
(10.0003 0.00977803 0)
(10.005 0.0278963 0)
(10.0153 0.0448224 0)
(10.0287 0.058784 0)
(10.0466 0.0696929 0)
(10.0666 0.0779635 0)
(10.0881 0.0831217 0)
(10.1102 0.0871406 0)
(10.1323 0.0900073 0)
(10.1541 0.0924921 0)
(10.1759 0.0951614 0)
(10.1973 0.0972586 0)
(10.2197 0.0998341 0)
(10.2416 0.101895 0)
(10.2648 0.103676 0)
(10.2872 0.105387 0)
(10.311 0.106534 0)
(10.3341 0.107996 0)
(10.3576 0.108852 0)
(10.3812 0.109968 0)
(10.4042 0.110949 0)
(10.4287 0.111942 0)
(10.4508 0.11315 0)
(10.4755 0.113818 0)
(10.4974 0.115305 0)
(10.5219 0.116025 0)
(10.5438 0.117603 0)
(10.5676 0.118595 0)
(10.5891 0.11997 0)
(10.6123 0.12161 0)
(10.6337 0.123107 0)
(10.6558 0.125167 0)
(10.6769 0.127205 0)
(10.6977 0.129463 0)
(10.7184 0.132516 0)
(10.7381 0.1353 0)
(10.7577 0.139254 0)
(10.7764 0.143213 0)
(10.7949 0.14782 0)
(10.812 0.153876 0)
(10.8298 0.159017 0)
(10.8447 0.167816 0)
(10.8622 0.173945 0)
(10.8742 0.185418 0)
(10.8919 0.194095 0)
(10.9008 0.207392 0)
(10.9179 0.220852 0)
(10.9253 0.235191 0)
(10.9395 0.255207 0)
(10.9482 0.271021 0)
(10.957 0.298274 0)
(10.9689 0.317094 0)
(10.972 0.351818 0)
(10.9868 0.375364 0)
(10.9855 0.418046 0)
(11.0026 0.448417 0)
(10.9987 0.497678 0)
(11.0163 0.540413 0)
(11.0128 0.590891 0)
(11.0283 0.651545 0)
(11.0263 0.703767 0)
(11.0407 0.773947 0)
(11.0336 0.842308 0)
(11.0488 0.907224 0)
(11.0326 0.997191 0)
(11.0371 1.06626 0)
(11.0157 1.16386 0)
(10.9976 1.25806 0)
(10.9607 1.36401 0)
(10.9232 1.48355 0)
(10.8516 1.61385 0)
(10.7911 1.75416 0)
(10.6824 1.90967 0)
(10.5787 2.06856 0)
(10.4306 2.2303 0)
(10.2369 2.3919 0)
(10.0296 2.54966 0)
(9.66954 2.69875 0)
(9.39829 2.87354 0)
(8.78115 2.94938 0)
(10.0002 0.00698955 0)
(10.0041 0.0200434 0)
(10.0126 0.0325831 0)
(10.024 0.0431465 0)
(10.0393 0.0520646 0)
(10.0571 0.0590684 0)
(10.0764 0.0636871 0)
(10.0975 0.0674691 0)
(10.1185 0.0699496 0)
(10.1403 0.072097 0)
(10.1616 0.0741419 0)
(10.1832 0.075805 0)
(10.2052 0.0779484 0)
(10.2271 0.0796752 0)
(10.2497 0.0811336 0)
(10.272 0.082841 0)
(10.2955 0.0837103 0)
(10.3184 0.0853261 0)
(10.3418 0.0857821 0)
(10.3651 0.0871708 0)
(10.3884 0.0878091 0)
(10.4125 0.089112 0)
(10.4349 0.0899715 0)
(10.4592 0.0909767 0)
(10.4813 0.0923688 0)
(10.5059 0.0933031 0)
(10.5275 0.0950787 0)
(10.5517 0.0960362 0)
(10.5728 0.0979216 0)
(10.597 0.0995594 0)
(10.6174 0.101507 0)
(10.641 0.103923 0)
(10.6608 0.105964 0)
(10.6834 0.109319 0)
(10.7031 0.111776 0)
(10.7244 0.116331 0)
(10.7437 0.119378 0)
(10.7633 0.12509 0)
(10.7825 0.129586 0)
(10.8002 0.136062 0)
(10.8192 0.143047 0)
(10.8347 0.150295 0)
(10.8536 0.159859 0)
(10.8666 0.169277 0)
(10.8862 0.180592 0)
(10.8956 0.193972 0)
(10.9169 0.207042 0)
(10.9221 0.224614 0)
(10.9452 0.241707 0)
(10.9472 0.261902 0)
(10.9704 0.286309 0)
(10.972 0.3084 0)
(10.9929 0.340875 0)
(10.997 0.36818 0)
(11.0144 0.405981 0)
(11.0216 0.442559 0)
(11.0371 0.487122 0)
(11.0459 0.528378 0)
(11.0617 0.589805 0)
(11.0705 0.628399 0)
(11.0891 0.708282 0)
(11.0935 0.753651 0)
(11.1178 0.837619 0)
(11.1144 0.90327 0)
(11.1402 0.990559 0)
(11.1298 1.07132 0)
(11.1541 1.1759 0)
(11.1248 1.27122 0)
(11.1575 1.39504 0)
(11.0921 1.51494 0)
(11.132 1.66202 0)
(11.0305 1.80912 0)
(11.0737 1.98442 0)
(10.9181 2.15507 0)
(10.978 2.3582 0)
(10.7342 2.52726 0)
(10.7917 2.77022 0)
(10.4523 2.92015 0)
(10.452 3.18473 0)
(10.0148 3.3063 0)
(10.0002 0.00472109 0)
(10.0037 0.0136211 0)
(10.0109 0.022271 0)
(10.0214 0.02966 0)
(10.0347 0.0362717 0)
(10.0513 0.041406 0)
(10.0686 0.0450517 0)
(10.0894 0.0480917 0)
(10.1088 0.0500778 0)
(10.1312 0.0517067 0)
(10.1512 0.0532684 0)
(10.1739 0.0543863 0)
(10.1949 0.056241 0)
(10.2174 0.0572663 0)
(10.2391 0.0586881 0)
(10.2619 0.0598811 0)
(10.2848 0.060845 0)
(10.3076 0.0620966 0)
(10.3311 0.0625679 0)
(10.354 0.063853 0)
(10.3781 0.0644532 0)
(10.401 0.0657915 0)
(10.4247 0.0664668 0)
(10.4477 0.0677799 0)
(10.4714 0.0689469 0)
(10.4945 0.0703538 0)
(10.5175 0.0718597 0)
(10.5404 0.0733432 0)
(10.5629 0.0751315 0)
(10.5861 0.0772651 0)
(10.6079 0.0793201 0)
(10.6305 0.0819539 0)
(10.6518 0.0847033 0)
(10.6735 0.0875189 0)
(10.695 0.091932 0)
(10.7153 0.0946256 0)
(10.7361 0.100956 0)
(10.7559 0.104034 0)
(10.7753 0.111946 0)
(10.795 0.116659 0)
(10.8127 0.125515 0)
(10.8319 0.132863 0)
(10.8487 0.142804 0)
(10.866 0.152915 0)
(10.8839 0.16528 0)
(10.8972 0.177505 0)
(10.9186 0.193998 0)
(10.9259 0.208179 0)
(10.9521 0.229729 0)
(10.9535 0.24687 0)
(10.9841 0.273897 0)
(10.9807 0.294426 0)
(11.0153 0.329749 0)
(11.0086 0.351005 0)
(11.0457 0.399588 0)
(11.0389 0.420616 0)
(11.0765 0.480433 0)
(11.0709 0.51116 0)
(11.1101 0.570947 0)
(11.1048 0.621488 0)
(11.1445 0.682425 0)
(11.1435 0.742794 0)
(11.1786 0.822679 0)
(11.1798 0.882517 0)
(11.2187 0.985465 0)
(11.2054 1.05437 0)
(11.2589 1.17621 0)
(11.2217 1.26119 0)
(11.291 1.40713 0)
(11.2182 1.513 0)
(11.3136 1.68907 0)
(11.1942 1.81656 0)
(11.3052 2.03506 0)
(11.1589 2.17696 0)
(11.2492 2.43498 0)
(11.0949 2.59936 0)
(11.137 2.87181 0)
(10.9699 3.06925 0)
(10.9338 3.33029 0)
(10.7441 3.52893 0)
(10.0001 0.00272075 0)
(10.0035 0.00798247 0)
(10.0099 0.0130226 0)
(10.0201 0.0174857 0)
(10.032 0.0215493 0)
(10.048 0.0246413 0)
(10.0639 0.0270329 0)
(10.0845 0.029025 0)
(10.1029 0.0303638 0)
(10.1254 0.0313991 0)
(10.1448 0.032479 0)
(10.1679 0.0331709 0)
(10.1884 0.0345878 0)
(10.2112 0.0350154 0)
(10.2325 0.0363284 0)
(10.2557 0.0369499 0)
(10.278 0.0380041 0)
(10.3013 0.0387647 0)
(10.3241 0.0393458 0)
(10.3477 0.0404973 0)
(10.3713 0.0409995 0)
(10.3945 0.0424523 0)
(10.4181 0.0428602 0)
(10.4412 0.0445796 0)
(10.4653 0.0454882 0)
(10.4878 0.0472219 0)
(10.5118 0.0487225 0)
(10.5337 0.0501982 0)
(10.5579 0.0526709 0)
(10.5798 0.0541909 0)
(10.6031 0.0575174 0)
(10.625 0.0592573 0)
(10.6471 0.0632046 0)
(10.6693 0.0659844 0)
(10.6906 0.0702088 0)
(10.7123 0.0748724 0)
(10.7328 0.0788594 0)
(10.7537 0.0859352 0)
(10.7738 0.0902759 0)
(10.7935 0.099229 0)
(10.8134 0.105464 0)
(10.8317 0.115187 0)
(10.8515 0.124753 0)
(10.8683 0.135183 0)
(10.8884 0.148428 0)
(10.9035 0.160603 0)
(10.9244 0.177488 0)
(10.9375 0.192033 0)
(10.9596 0.214189 0)
(10.971 0.229788 0)
(10.9942 0.26027 0)
(11.0045 0.276601 0)
(11.0297 0.314016 0)
(11.0382 0.338605 0)
(11.0672 0.374068 0)
(11.0735 0.416356 0)
(11.106 0.449026 0)
(11.1135 0.502498 0)
(11.1466 0.547001 0)
(11.1551 0.601406 0)
(11.1951 0.660629 0)
(11.1956 0.725698 0)
(11.2477 0.791721 0)
(11.2427 0.871295 0)
(11.2963 0.955222 0)
(11.2933 1.04178 0)
(11.3462 1.15079 0)
(11.3371 1.25295 0)
(11.3917 1.38631 0)
(11.378 1.51128 0)
(11.4215 1.67318 0)
(11.4102 1.833 0)
(11.4318 2.0163 0)
(11.4256 2.22175 0)
(11.412 2.42827 0)
(11.413 2.66827 0)
(11.3483 2.90551 0)
(11.3497 3.16756 0)
(11.2213 3.4079 0)
(11.1781 3.69798 0)
(10.0004 0.000888196 0)
(10.003 0.00270139 0)
(10.0098 0.00438152 0)
(10.019 0.00600289 0)
(10.0312 0.00738577 0)
(10.0459 0.00848997 0)
(10.0623 0.00939128 0)
(10.0816 0.0102632 0)
(10.1006 0.0107524 0)
(10.122 0.0112288 0)
(10.1422 0.0117861 0)
(10.1648 0.0121123 0)
(10.1855 0.0129935 0)
(10.2083 0.0129337 0)
(10.2293 0.0140851 0)
(10.2533 0.0140655 0)
(10.2744 0.0152724 0)
(10.2991 0.0152823 0)
(10.3203 0.0164041 0)
(10.3459 0.0168053 0)
(10.3675 0.0179841 0)
(10.3928 0.0185542 0)
(10.4145 0.0198985 0)
(10.4397 0.020724 0)
(10.4619 0.0226521 0)
(10.4865 0.0235143 0)
(10.5086 0.0258083 0)
(10.5329 0.0270288 0)
(10.5551 0.0295507 0)
(10.5794 0.0320029 0)
(10.6009 0.0339385 0)
(10.625 0.038158 0)
(10.646 0.039608 0)
(10.6698 0.0454273 0)
(10.6908 0.0477324 0)
(10.7131 0.0537681 0)
(10.7346 0.0584673 0)
(10.7551 0.0640643 0)
(10.7772 0.0715905 0)
(10.7963 0.0776695 0)
(10.8183 0.0871434 0)
(10.8365 0.0950436 0)
(10.8579 0.106313 0)
(10.8759 0.116032 0)
(10.8965 0.130687 0)
(10.9145 0.141435 0)
(10.9348 0.16026 0)
(10.9525 0.174227 0)
(10.9728 0.194019 0)
(10.9908 0.217032 0)
(11.0109 0.234056 0)
(11.03 0.267557 0)
(11.0501 0.287898 0)
(11.0706 0.321529 0)
(11.092 0.359047 0)
(11.1123 0.385259 0)
(11.1409 0.439469 0)
(11.1523 0.470368 0)
(11.1988 0.528682 0)
(11.1949 0.572794 0)
(11.2595 0.639883 0)
(11.2469 0.690508 0)
(11.3225 0.772242 0)
(11.3041 0.836815 0)
(11.3903 0.928694 0)
(11.3698 1.01042 0)
(11.4514 1.12475 0)
(11.448 1.2219 0)
(11.5063 1.35891 0)
(11.5247 1.48896 0)
(11.5616 1.64809 0)
(11.5865 1.81202 0)
(11.6132 2.00828 0)
(11.6268 2.20404 0)
(11.6411 2.44091 0)
(11.6367 2.67509 0)
(11.6342 2.93648 0)
(11.581 3.21543 0)
(11.5681 3.50014 0)
(11.441 3.77092 0)
(10.0012 -0.000822711 0)
(10.0021 -0.00256918 0)
(10.0106 -0.00389948 0)
(10.0183 -0.00540524 0)
(10.0317 -0.00645913 0)
(10.0454 -0.00751504 0)
(10.0628 -0.00804243 0)
(10.0813 -0.00848907 0)
(10.1008 -0.00875408 0)
(10.122 -0.00898742 0)
(10.1423 -0.00879847 0)
(10.1652 -0.00904382 0)
(10.1852 -0.0085598 0)
(10.2091 -0.0091573 0)
(10.229 -0.00814723 0)
(10.2544 -0.00886991 0)
(10.2739 -0.00748681 0)
(10.3006 -0.0082687 0)
(10.3198 -0.00658813 0)
(10.3479 -0.00688729 0)
(10.3668 -0.00535855 0)
(10.3951 -0.00498207 0)
(10.4139 -0.00384642 0)
(10.4424 -0.00231724 0)
(10.4617 -0.00148016 0)
(10.4893 0.000801706 0)
(10.5091 0.00163427 0)
(10.5356 0.0043155 0)
(10.557 0.00613271 0)
(10.582 0.00867197 0)
(10.604 0.0118533 0)
(10.6278 0.0140274 0)
(10.65 0.0188155 0)
(10.6736 0.0213482 0)
(10.6952 0.0272479 0)
(10.7185 0.0309098 0)
(10.7394 0.0374247 0)
(10.7622 0.0429451 0)
(10.7829 0.0501598 0)
(10.8051 0.0576644 0)
(10.8255 0.065899 0)
(10.8468 0.0756579 0)
(10.8675 0.0850959 0)
(10.8876 0.0978103 0)
(10.9101 0.108528 0)
(10.9267 0.124712 0)
(10.9538 0.137623 0)
(10.9653 0.156301 0)
(10.9977 0.175257 0)
(11.0056 0.191687 0)
(11.0411 0.223578 0)
(11.048 0.233852 0)
(11.0869 0.279104 0)
(11.0914 0.290854 0)
(11.136 0.338733 0)
(11.1413 0.36324 0)
(11.1824 0.411475 0)
(11.2037 0.444225 0)
(11.2312 0.503131 0)
(11.2667 0.541074 0)
(11.2983 0.607967 0)
(11.3254 0.662115 0)
(11.3772 0.732486 0)
(11.3942 0.806534 0)
(11.462 0.88396 0)
(11.4666 0.982942 0)
(11.5615 1.07124 0)
(11.5426 1.1929 0)
(11.6616 1.31095 0)
(11.6324 1.45135 0)
(11.7544 1.60521 0)
(11.7262 1.78002 0)
(11.8391 1.96327 0)
(11.8063 2.19361 0)
(11.9056 2.40208 0)
(11.8574 2.68016 0)
(11.9211 2.952 0)
(11.867 3.23275 0)
(11.8474 3.57043 0)
(11.7833 3.89241 0)
(10.0014 -0.00251022 0)
(10.0022 -0.00810243 0)
(10.011 -0.0122149 0)
(10.0191 -0.0172217 0)
(10.0326 -0.0203301 0)
(10.0474 -0.0238282 0)
(10.0645 -0.0255346 0)
(10.0843 -0.0274611 0)
(10.103 -0.0282941 0)
(10.1255 -0.029267 0)
(10.1449 -0.0295129 0)
(10.1688 -0.0302517 0)
(10.188 -0.0303978 0)
(10.2129 -0.0311135 0)
(10.2321 -0.030918 0)
(10.2584 -0.0314476 0)
(10.2773 -0.0309906 0)
(10.3048 -0.0311975 0)
(10.3236 -0.0304313 0)
(10.3522 -0.0300503 0)
(10.3709 -0.0293614 0)
(10.3996 -0.0283952 0)
(10.4184 -0.0276368 0)
(10.4473 -0.0261501 0)
(10.4664 -0.0248191 0)
(10.4947 -0.0237029 0)
(10.5141 -0.0210208 0)
(10.5421 -0.0205793 0)
(10.5621 -0.0161397 0)
(10.5895 -0.0158206 0)
(10.6093 -0.0110062 0)
(10.6364 -0.0088359 0)
(10.6559 -0.00535074 0)
(10.6833 0.000585368 0)
(10.7018 0.00209735 0)
(10.7293 0.0113608 0)
(10.7471 0.0126655 0)
(10.774 0.023352 0)
(10.7925 0.0266617 0)
(10.8174 0.0377466 0)
(10.8375 0.043334 0)
(10.8605 0.0554752 0)
(10.8814 0.0636801 0)
(10.9043 0.0758241 0)
(10.9248 0.0904192 0)
(10.948 0.0982587 0)
(10.9695 0.123476 0)
(10.991 0.128026 0)
(11.0159 0.157306 0)
(11.0354 0.172031 0)
(11.0617 0.191625 0)
(11.0854 0.225782 0)
(11.1062 0.238949 0)
(11.1409 0.279372 0)
(11.1542 0.304574 0)
(11.199 0.341318 0)
(11.2097 0.37705 0)
(11.2621 0.422622 0)
(11.2702 0.4617 0)
(11.335 0.513459 0)
(11.3397 0.570836 0)
(11.4108 0.621772 0)
(11.4285 0.693673 0)
(11.4892 0.762403 0)
(11.5315 0.84149 0)
(11.5795 0.927094 0)
(11.6456 1.02986 0)
(11.6824 1.13295 0)
(11.7666 1.25779 0)
(11.8049 1.3949 0)
(11.8894 1.54698 0)
(11.9324 1.71861 0)
(12.0161 1.9239 0)
(12.0572 2.11458 0)
(12.1193 2.39697 0)
(12.1596 2.62532 0)
(12.1889 2.9476 0)
(12.1847 3.26547 0)
(12.1961 3.60143 0)
(12.1029 3.97604 0)
(10.0005 -0.00452001 0)
(10.0036 -0.0137929 0)
(10.0111 -0.0214291 0)
(10.0215 -0.0295083 0)
(10.0346 -0.0351149 0)
(10.0516 -0.0404454 0)
(10.0687 -0.0437985 0)
(10.0899 -0.0463311 0)
(10.1087 -0.0484584 0)
(10.132 -0.0491224 0)
(10.1514 -0.050988 0)
(10.1754 -0.0510176 0)
(10.1948 -0.0529864 0)
(10.2195 -0.0527921 0)
(10.2393 -0.0542026 0)
(10.2651 -0.0541445 0)
(10.2852 -0.0544062 0)
(10.3116 -0.0547942 0)
(10.3322 -0.0535855 0)
(10.359 -0.0544916 0)
(10.3799 -0.0523457 0)
(10.4067 -0.0531112 0)
(10.4277 -0.050922 0)
(10.4552 -0.0503693 0)
(10.4757 -0.0492213 0)
(10.5036 -0.0467633 0)
(10.5236 -0.046627 0)
(10.5518 -0.0425968 0)
(10.5724 -0.0420562 0)
(10.5993 -0.0381051 0)
(10.621 -0.0356394 0)
(10.646 -0.0325832 0)
(10.6694 -0.0277021 0)
(10.693 -0.0246802 0)
(10.7166 -0.0185369 0)
(10.7401 -0.0144224 0)
(10.7625 -0.00706985 0)
(10.787 -0.00262525 0)
(10.8083 0.00809036 0)
(10.833 0.0108417 0)
(10.8538 0.0260863 0)
(10.8792 0.0284198 0)
(10.8981 0.0452476 0)
(10.9272 0.0522931 0)
(10.9415 0.0660755 0)
(10.9755 0.0817523 0)
(10.9874 0.0918597 0)
(11.0222 0.115078 0)
(11.0364 0.12586 0)
(11.0702 0.151905 0)
(11.0863 0.168691 0)
(11.1212 0.195506 0)
(11.1414 0.218538 0)
(11.1709 0.248323 0)
(11.2061 0.277963 0)
(11.2247 0.309397 0)
(11.2718 0.348961 0)
(11.2955 0.384244 0)
(11.3359 0.428805 0)
(11.3787 0.475601 0)
(11.4127 0.528602 0)
(11.4691 0.576344 0)
(11.5007 0.653203 0)
(11.5798 0.705232 0)
(11.5947 0.790491 0)
(11.7079 0.871793 0)
(11.7142 0.965355 0)
(11.8384 1.06519 0)
(11.8608 1.1959 0)
(11.9905 1.30734 0)
(12.0126 1.48874 0)
(12.1641 1.62173 0)
(12.1813 1.8525 0)
(12.3264 2.05359 0)
(12.353 2.29999 0)
(12.4735 2.60264 0)
(12.4778 2.89518 0)
(12.5752 3.25529 0)
(12.5008 3.64716 0)
(12.5841 4.02809 0)
(9.99988 -0.0071039 0)
(10.0045 -0.0196919 0)
(10.0124 -0.0322383 0)
(10.0244 -0.0425902 0)
(10.0392 -0.0514463 0)
(10.0573 -0.0577243 0)
(10.0767 -0.0628636 0)
(10.0979 -0.0654962 0)
(10.119 -0.0687444 0)
(10.141 -0.0693034 0)
(10.1624 -0.072401 0)
(10.1846 -0.0722754 0)
(10.2062 -0.0754311 0)
(10.2291 -0.0749735 0)
(10.2512 -0.077423 0)
(10.2752 -0.0770257 0)
(10.2977 -0.0780349 0)
(10.3221 -0.0780519 0)
(10.3453 -0.0775689 0)
(10.3697 -0.0780119 0)
(10.3938 -0.0766968 0)
(10.4175 -0.0766751 0)
(10.4424 -0.0756165 0)
(10.4662 -0.0740763 0)
(10.491 -0.0739714 0)
(10.5152 -0.0709328 0)
(10.5391 -0.0706705 0)
(10.5647 -0.0677014 0)
(10.5879 -0.0648593 0)
(10.6136 -0.0643666 0)
(10.6366 -0.0573667 0)
(10.6615 -0.0592341 0)
(10.6857 -0.0493444 0)
(10.7097 -0.0503593 0)
(10.7334 -0.0413747 0)
(10.7586 -0.0378779 0)
(10.7796 -0.0320464 0)
(10.8077 -0.0230123 0)
(10.8264 -0.0199628 0)
(10.8547 -0.00585097 0)
(10.875 -0.00582493 0)
(10.9008 0.0153455 0)
(10.923 0.0107913 0)
(10.9497 0.03891 0)
(10.9688 0.0350862 0)
(11.0004 0.0603995 0)
(11.0178 0.0708253 0)
(11.0474 0.0827245 0)
(11.0738 0.11041 0)
(11.0938 0.118605 0)
(11.1293 0.145949 0)
(11.1512 0.168427 0)
(11.179 0.188824 0)
(11.2173 0.219175 0)
(11.2388 0.247499 0)
(11.2777 0.277262 0)
(11.3159 0.309972 0)
(11.3468 0.354748 0)
(11.3891 0.381086 0)
(11.4428 0.439764 0)
(11.4667 0.47779 0)
(11.5443 0.533716 0)
(11.5726 0.593215 0)
(11.655 0.654563 0)
(11.6892 0.726082 0)
(11.7982 0.80593 0)
(11.8205 0.891691 0)
(11.9584 0.994664 0)
(11.9911 1.0928 0)
(12.134 1.2527 0)
(12.1867 1.33726 0)
(12.3452 1.58535 0)
(12.3995 1.69056 0)
(12.5724 1.98035 0)
(12.6209 2.19796 0)
(12.7937 2.49875 0)
(12.8177 2.85229 0)
(12.9586 3.19067 0)
(12.9413 3.66193 0)
(12.978 4.08898 0)
(10.0008 -0.00999496 0)
(10.0042 -0.0273453 0)
(10.016 -0.0445945 0)
(10.0276 -0.0582261 0)
(10.0479 -0.0690067 0)
(10.0652 -0.0770948 0)
(10.0901 -0.0817792 0)
(10.1089 -0.0860569 0)
(10.1347 -0.088096 0)
(10.1532 -0.0907224 0)
(10.1787 -0.0929819 0)
(10.1973 -0.0944644 0)
(10.2226 -0.0974315 0)
(10.2426 -0.0975701 0)
(10.268 -0.100426 0)
(10.2898 -0.0999304 0)
(10.3151 -0.101231 0)
(10.3374 -0.101725 0)
(10.3635 -0.100279 0)
(10.3852 -0.103081 0)
(10.4128 -0.0983602 0)
(10.4332 -0.103272 0)
(10.4622 -0.0965561 0)
(10.4828 -0.101293 0)
(10.5106 -0.095553 0)
(10.5336 -0.0968405 0)
(10.5577 -0.0945871 0)
(10.5859 -0.0908087 0)
(10.6051 -0.0916392 0)
(10.6372 -0.0850637 0)
(10.6536 -0.0855946 0)
(10.6861 -0.0792825 0)
(10.7046 -0.0772722 0)
(10.7334 -0.0710022 0)
(10.7559 -0.0685836 0)
(10.7807 -0.0590577 0)
(10.8062 -0.058297 0)
(10.8281 -0.0458282 0)
(10.8576 -0.04287 0)
(10.8727 -0.0339022 0)
(10.912 -0.0219369 0)
(10.9159 -0.0201235 0)
(10.9656 -4.13696e-05 0)
(10.9641 0.00103619 0)
(11.0133 0.0208573 0)
(11.0197 0.0292622 0)
(11.0589 0.0466909 0)
(11.0753 0.0583598 0)
(11.1116 0.0816718 0)
(11.1281 0.0918634 0)
(11.1686 0.118081 0)
(11.1882 0.139943 0)
(11.2232 0.153717 0)
(11.2575 0.194572 0)
(11.2864 0.207783 0)
(11.3239 0.241199 0)
(11.369 0.279811 0)
(11.3943 0.30399 0)
(11.4574 0.343887 0)
(11.4844 0.395449 0)
(11.5585 0.4199 0)
(11.577 0.488693 0)
(11.6919 0.527108 0)
(11.6845 0.599986 0)
(11.8288 0.644334 0)
(11.8414 0.747648 0)
(11.9772 0.79069 0)
(12.0224 0.918517 0)
(12.1674 0.996316 0)
(12.238 1.11867 0)
(12.3886 1.27235 0)
(12.4934 1.38521 0)
(12.6574 1.63522 0)
(12.7739 1.76852 0)
(12.9605 2.10442 0)
(13.0705 2.34449 0)
(13.2436 2.71854 0)
(13.3335 3.16061 0)
(13.4598 3.54947 0)
(13.4539 4.1615 0)
(10.0024 -0.0130189 0)
(10.0041 -0.0387615 0)
(10.0221 -0.0594517 0)
(10.0339 -0.0783115 0)
(10.0614 -0.088718 0)
(10.0787 -0.0995253 0)
(10.1091 -0.101745 0)
(10.1264 -0.108715 0)
(10.1556 -0.108139 0)
(10.1719 -0.114189 0)
(10.1995 -0.114152 0)
(10.2171 -0.118818 0)
(10.2434 -0.119735 0)
(10.264 -0.122209 0)
(10.2889 -0.123402 0)
(10.3129 -0.124358 0)
(10.336 -0.124687 0)
(10.3619 -0.125983 0)
(10.3844 -0.124278 0)
(10.4109 -0.127213 0)
(10.4339 -0.122916 0)
(10.4597 -0.127288 0)
(10.4838 -0.121756 0)
(10.5093 -0.12491 0)
(10.5334 -0.121511 0)
(10.5598 -0.119727 0)
(10.5822 -0.121356 0)
(10.6112 -0.113068 0)
(10.6314 -0.118769 0)
(10.6615 -0.107628 0)
(10.6819 -0.111536 0)
(10.7091 -0.103833 0)
(10.7352 -0.100053 0)
(10.755 -0.099305 0)
(10.7885 -0.0870649 0)
(10.8019 -0.0914696 0)
(10.8391 -0.073212 0)
(10.8515 -0.080563 0)
(10.8884 -0.0573273 0)
(10.9 -0.0666361 0)
(10.9402 -0.0414017 0)
(10.9462 -0.0449999 0)
(10.9928 -0.0296805 0)
(10.9959 -0.0136353 0)
(11.0415 -0.0170624 0)
(11.0508 0.0174753 0)
(11.0919 0.00981327 0)
(11.1007 0.0399 0)
(11.1557 0.0516517 0)
(11.1453 0.0639373 0)
(11.222 0.0927025 0)
(11.2073 0.103632 0)
(11.2726 0.131798 0)
(11.2924 0.148206 0)
(11.3284 0.187842 0)
(11.3666 0.188659 0)
(11.4223 0.252426 0)
(11.4312 0.252646 0)
(11.5238 0.303883 0)
(11.5315 0.342208 0)
(11.6206 0.372289 0)
(11.6434 0.42288 0)
(11.7654 0.479813 0)
(11.7454 0.509728 0)
(11.9381 0.602959 0)
(11.8977 0.622855 0)
(12.117 0.75356 0)
(12.0867 0.761768 0)
(12.3527 0.938482 0)
(12.3033 0.966307 0)
(12.624 1.13579 0)
(12.6129 1.27993 0)
(12.9256 1.38533 0)
(12.9737 1.69771 0)
(13.3107 1.81504 0)
(13.3565 2.23042 0)
(13.7257 2.50139 0)
(13.7387 3.02237 0)
(14.0373 3.47832 0)
(14.0225 4.12933 0)
(10.0017 -0.018044 0)
(10.0084 -0.0535606 0)
(10.0292 -0.0794403 0)
(10.0496 -0.101999 0)
(10.0793 -0.112916 0)
(10.1046 -0.123955 0)
(10.1327 -0.125803 0)
(10.1572 -0.133293 0)
(10.1796 -0.133293 0)
(10.2045 -0.14041 0)
(10.2221 -0.141308 0)
(10.2515 -0.146009 0)
(10.2652 -0.148408 0)
(10.3004 -0.14889 0)
(10.3107 -0.153228 0)
(10.35 -0.14979 0)
(10.3583 -0.155801 0)
(10.3975 -0.15038 0)
(10.408 -0.156309 0)
(10.4433 -0.151353 0)
(10.4593 -0.154817 0)
(10.4879 -0.152446 0)
(10.5105 -0.152126 0)
(10.5336 -0.15191 0)
(10.5596 -0.149862 0)
(10.5815 -0.148065 0)
(10.6054 -0.148724 0)
(10.6319 -0.14093 0)
(10.6493 -0.147208 0)
(10.6817 -0.133199 0)
(10.6937 -0.142506 0)
(10.7282 -0.126091 0)
(10.7412 -0.134204 0)
(10.7712 -0.117775 0)
(10.7897 -0.124706 0)
(10.813 -0.106006 0)
(10.8379 -0.113599 0)
(10.8533 -0.0935442 0)
(10.8897 -0.0964437 0)
(10.8867 -0.0841186 0)
(10.9496 -0.0729819 0)
(10.9144 -0.0721725 0)
(11.0096 -0.0522174 0)
(10.952 -0.0478351 0)
(11.0541 -0.0378785 0)
(11.0093 -0.0152047 0)
(11.0893 -0.0173764 0)
(11.0682 0.0114563 0)
(11.1426 0.0184343 0)
(11.1095 0.035482 0)
(11.2168 0.0531924 0)
(11.1588 0.081256 0)
(11.2767 0.0717448 0)
(11.2437 0.143939 0)
(11.3318 0.102686 0)
(11.3233 0.189409 0)
(11.4331 0.16672 0)
(11.3895 0.230665 0)
(11.5386 0.230656 0)
(11.5147 0.298492 0)
(11.6182 0.297152 0)
(11.6679 0.369398 0)
(11.7523 0.388711 0)
(11.8042 0.458568 0)
(11.9267 0.472042 0)
(11.9922 0.591548 0)
(12.1151 0.565637 0)
(12.2231 0.746021 0)
(12.3755 0.706442 0)
(12.4664 0.915735 0)
(12.7267 0.911435 0)
(12.7673 1.13755 0)
(13.1348 1.18424 0)
(13.2163 1.44917 0)
(13.5709 1.60209 0)
(13.7723 1.92868 0)
(14.1049 2.2652 0)
(14.316 2.72119 0)
(14.6484 3.33942 0)
(14.6444 3.96344 0)
(9.99778 -0.0260389 0)
(10.0199 -0.070267 0)
(10.0398 -0.0991247 0)
(10.0788 -0.117821 0)
(10.1044 -0.125862 0)
(10.1453 -0.131978 0)
(10.1617 -0.134493 0)