/*--------------------------------*- C++ -*----------------------------------*\
| =========                 |                                                 |
| \\      /  F ield         | OpenFOAM: The Open Source CFD Toolbox           |
|  \\    /   O peration     | Version:  2306                                  |
|   \\  /    A nd           | Website:  www.openfoam.com                      |
|    \\/     M anipulation  |                                                 |
\*---------------------------------------------------------------------------*/
FoamFile
{
    version     2.0;
    format      ascii;
    arch        "LSB;label=32;scalar=64";
    class       volScalarField;
    location    "0.375";
    object      p;
}
// * * * * * * * * * * * * * * * * * * * * * * * * * * * * * * * * * * * * * //

dimensions      [0 2 -2 0 0 0 0];

internalField   nonuniform List<scalar> 
17600
(
349.566
347.522
345.745
344.514
343.751
343.244
342.827
342.419
342.002
341.578
341.158
340.746
340.342
339.945
339.553
339.167
338.786
338.413
338.052
337.706
337.377
337.07
336.786
336.527
336.294
336.086
335.904
335.744
335.607
335.488
335.385
335.296
335.217
335.146
335.081
335.02
334.961
334.903
334.846
334.788
334.729
334.668
334.606
334.542
334.476
334.409
334.341
334.271
334.201
334.13
334.058
333.986
333.913
333.841
333.768
333.696
333.624
333.553
333.483
333.413
333.344
333.276
333.209
333.142
333.077
333.013
332.951
332.889
332.829
332.77
332.712
332.656
332.601
332.548
332.497
332.447
332.398
332.352
332.307
332.264
332.223
332.183
332.146
332.111
332.078
332.048
332.02
331.994
331.971
331.951
331.933
331.918
331.906
331.897
331.892
331.89
331.891
331.896
331.904
331.916
331.933
331.953
331.978
332.007
332.041
332.079
332.122
332.17
332.223
332.282
332.345
332.414
332.488
332.568
332.653
332.743
332.839
332.941
333.048
333.16
333.277
333.399
333.526
333.657
333.793
333.932
334.075
334.22
334.367
334.517
334.667
334.818
334.968
335.118
335.265
335.411
335.553
335.692
335.827
335.957
336.082
336.201
336.314
336.421
336.521
336.615
336.701
336.781
336.855
336.923
336.985
337.041
337.091
337.136
337.176
337.213
337.245
337.274
337.3
337.323
346.837
346.067
345.14
344.276
343.586
343.063
342.643
342.261
341.881
341.492
341.098
340.703
340.313
339.929
339.55
339.176
338.808
338.448
338.099
337.764
337.446
337.146
336.868
336.613
336.381
336.173
335.989
335.827
335.685
335.562
335.454
335.359
335.275
335.198
335.128
335.062
334.999
334.937
334.876
334.815
334.753
334.69
334.626
334.56
334.493
334.425
334.355
334.285
334.213
334.141
334.069
333.996
333.923
333.85
333.777
333.705
333.633
333.561
333.491
333.421
333.351
333.283
333.216
333.149
333.084
333.02
332.957
332.895
332.835
332.776
332.718
332.662
332.607
332.554
332.502
332.452
332.404
332.357
332.312
332.269
332.228
332.189
332.152
332.117
332.084
332.053
332.025
332
331.976
331.956
331.938
331.924
331.912
331.903
331.898
331.896
331.897
331.902
331.911
331.923
331.94
331.96
331.985
332.015
332.049
332.088
332.131
332.18
332.233
332.292
332.356
332.425
332.5
332.58
332.666
332.757
332.854
332.957
333.064
333.178
333.296
333.419
333.547
333.679
333.816
333.956
334.099
334.245
334.393
334.543
334.694
334.845
334.995
335.144
335.291
335.436
335.577
335.715
335.848
335.977
336.101
336.219
336.331
336.437
336.537
336.629
336.715
336.793
336.866
336.932
336.993
337.047
337.097
337.141
337.18
337.216
337.247
337.275
337.3
337.322
345.532
345.183
344.654
344.041
343.449
342.935
342.503
342.122
341.762
341.4
341.032
340.66
340.289
339.921
339.559
339.202
338.853
338.513
338.183
337.865
337.561
337.274
337.005
336.755
336.527
336.319
336.131
335.963
335.814
335.681
335.563
335.458
335.363
335.276
335.196
335.121
335.05
334.981
334.913
334.845
334.778
334.711
334.642
334.574
334.504
334.434
334.363
334.291
334.219
334.146
334.073
334
333.927
333.854
333.781
333.708
333.636
333.565
333.494
333.424
333.354
333.286
333.218
333.152
333.086
333.022
332.959
332.897
332.836
332.777
332.719
332.662
332.607
332.554
332.502
332.451
332.402
332.355
332.31
332.266
332.225
332.185
332.148
332.112
332.079
332.048
332.019
331.993
331.969
331.948
331.93
331.915
331.902
331.893
331.887
331.884
331.884
331.889
331.896
331.908
331.924
331.944
331.968
331.996
332.029
332.067
332.11
332.157
332.21
332.268
332.331
332.399
332.473
332.552
332.638
332.728
332.824
332.926
333.034
333.147
333.265
333.388
333.516
333.649
333.786
333.927
334.072
334.219
334.369
334.521
334.674
334.828
334.982
335.134
335.285
335.433
335.578
335.719
335.856
335.988
336.113
336.233
336.345
336.451
336.549
336.641
336.725
336.804
336.876
336.943
337.003
337.058
337.107
337.15
337.188
337.223
337.253
337.28
337.304
337.325
344.629
344.437
344.104
343.668
343.193
342.737
342.326
341.958
341.615
341.278
340.938
340.593
340.245
339.899
339.557
339.22
338.891
338.57
338.258
337.957
337.669
337.394
337.135
336.894
336.669
336.463
336.275
336.104
335.949
335.81
335.684
335.569
335.465
335.369
335.28
335.196
335.116
335.039
334.964
334.89
334.817
334.744
334.672
334.599
334.527
334.454
334.381
334.307
334.233
334.159
334.085
334.01
333.936
333.862
333.789
333.716
333.643
333.571
333.499
333.429
333.359
333.29
333.222
333.155
333.089
333.024
332.96
332.898
332.836
332.777
332.718
332.661
332.605
332.551
332.498
332.447
332.397
332.349
332.303
332.259
332.216
332.175
332.137
332.1
332.066
332.034
332.004
331.977
331.952
331.929
331.91
331.893
331.879
331.868
331.86
331.855
331.854
331.857
331.862
331.872
331.886
331.903
331.925
331.951
331.982
332.017
332.057
332.102
332.152
332.207
332.267
332.333
332.404
332.48
332.562
332.65
332.743
332.842
332.947
333.057
333.173
333.294
333.42
333.551
333.686
333.826
333.97
334.118
334.269
334.422
334.577
334.733
334.89
335.047
335.202
335.356
335.508
335.656
335.8
335.939
336.073
336.201
336.323
336.437
336.544
336.642
336.732
336.814
336.888
336.954
337.013
337.066
337.114
337.157
337.196
337.231
337.261
337.287
337.31
337.331
343.942
343.818
343.59
343.273
342.901
342.516
342.145
341.8
341.475
341.159
340.843
340.523
340.199
339.875
339.552
339.235
338.924
338.62
338.325
338.04
337.765
337.502
337.253
337.019
336.799
336.596
336.408
336.235
336.076
335.931
335.799
335.677
335.565
335.46
335.363
335.271
335.183
335.099
335.017
334.937
334.859
334.781
334.705
334.629
334.553
334.477
334.401
334.325
334.249
334.173
334.098
334.022
333.947
333.872
333.797
333.723
333.65
333.577
333.505
333.434
333.363
333.293
333.225
333.157
333.09
333.025
332.961
332.897
332.835
332.775
332.715
332.657
332.6
332.545
332.491
332.439
332.388
332.339
332.292
332.246
332.202
332.16
332.12
332.082
332.046
332.013
331.981
331.952
331.925
331.901
331.879
331.86
331.843
331.83
331.82
331.812
331.808
331.808
331.81
331.817
331.827
331.841
331.859
331.881
331.908
331.939
331.974
332.015
332.06
332.11
332.165
332.225
332.29
332.361
332.437
332.519
332.607
332.7
332.798
332.902
333.012
333.126
333.247
333.372
333.502
333.637
333.776
333.919
334.066
334.216
334.369
334.524
334.68
334.837
334.995
335.152
335.309
335.463
335.616
335.765
335.91
336.051
336.187
336.316
336.438
336.553
336.659
336.757
336.847
336.928
337
337.064
337.119
337.165
337.203
337.236
337.264
337.29
337.314
337.337
343.395
343.305
343.139
342.901
342.609
342.289
341.964
341.647
341.343
341.046
340.751
340.453
340.151
339.847
339.544
339.245
338.95
338.663
338.382
338.11
337.847
337.595
337.355
337.127
336.912
336.711
336.524
336.35
336.189
336.04
335.902
335.774
335.656
335.544
335.44
335.341
335.247
335.156
335.068
334.983
334.9
334.818
334.737
334.657
334.578
334.499
334.421
334.343
334.265
334.187
334.11
334.033
333.957
333.881
333.805
333.731
333.656
333.583
333.51
333.438
333.367
333.296
333.227
333.158
333.091
333.025
332.96
332.896
332.833
332.771
332.711
332.652
332.594
332.537
332.482
332.429
332.377
332.327
332.278
332.231
332.185
332.142
332.1
332.06
332.022
331.986
331.953
331.921
331.892
331.865
331.841
331.819
331.8
331.783
331.769
331.759
331.751
331.747
331.745
331.748
331.753
331.763
331.776
331.793
331.814
331.839
331.869
331.903
331.941
331.984
332.032
332.085
332.143
332.206
332.273
332.347
332.425
332.509
332.598
332.692
332.792
332.896
333.006
333.122
333.242
333.366
333.496
333.63
333.767
333.909
334.054
334.201
334.352
334.504
334.659
334.814
334.97
335.126
335.282
335.437
335.589
335.74
335.887
336.031
336.17
336.305
336.433
336.555
336.67
336.777
336.876
336.964
337.043
337.112
337.171
337.222
337.263
337.295
337.319
337.338
342.946
342.878
342.75
342.564
342.331
342.065
341.782
341.497
341.215
340.937
340.66
340.381
340.1
339.815
339.531
339.248
338.969
338.695
338.428
338.168
337.916
337.673
337.441
337.219
337.009
336.811
336.625
336.451
336.288
336.136
335.994
335.861
335.737
335.621
335.51
335.405
335.305
335.209
335.117
335.026
334.939
334.853
334.768
334.685
334.602
334.521
334.44
334.36
334.28
334.201
334.122
334.044
333.966
333.889
333.813
333.737
333.662
333.588
333.514
333.441
333.369
333.298
333.228
333.159
333.091
333.024
332.957
332.893
332.829
332.766
332.705
332.645
332.586
332.528
332.472
332.417
332.364
332.312
332.262
332.213
332.166
332.12
332.077
332.035
331.995
331.957
331.921
331.887
331.855
331.825
331.798
331.773
331.75
331.73
331.713
331.699
331.687
331.678
331.672
331.67
331.671
331.675
331.682
331.693
331.708
331.727
331.749
331.776
331.807
331.842
331.881
331.925
331.974
332.027
332.084
332.147
332.214
332.287
332.364
332.446
332.533
332.624
332.721
332.822
332.929
333.039
333.155
333.274
333.398
333.525
333.656
333.791
333.929
334.07
334.214
334.36
334.508
334.658
334.809
334.962
335.115
335.268
335.421
335.573
335.724
335.873
336.02
336.164
336.303
336.438
336.567
336.69
336.805
336.911
337.007
337.093
337.167
337.229
337.281
337.322
342.572
342.517
342.415
342.265
342.074
341.85
341.605
341.35
341.091
340.832
340.572
340.311
340.047
339.78
339.512
339.245
338.98
338.719
338.464
338.215
337.973
337.739
337.514
337.298
337.093
336.897
336.713
336.538
336.374
336.22
336.075
335.939
335.811
335.689
335.574
335.464
335.359
335.259
335.161
335.067
334.975
334.885
334.797
334.711
334.626
334.542
334.459
334.376
334.295
334.214
334.134
334.054
333.975
333.897
333.82
333.743
333.667
333.592
333.517
333.444
333.371
333.299
333.228
333.158
333.089
333.021
332.954
332.888
332.824
332.76
332.697
332.636
332.576
332.517
332.46
332.404
332.349
332.295
332.244
332.193
332.144
332.097
332.051
332.007
331.965
331.925
331.886
331.85
331.815
331.783
331.752
331.724
331.698
331.674
331.653
331.635
331.619
331.605
331.595
331.587
331.582
331.581
331.582
331.587
331.595
331.607
331.622
331.641
331.663
331.69
331.72
331.754
331.792
331.835
331.881
331.932
331.987
332.047
332.111
332.179
332.251
332.328
332.409
332.495
332.585
332.679
332.777
332.879
332.984
333.094
333.207
333.324
333.445
333.568
333.695
333.825
333.958
334.094
334.232
334.373
334.517
334.663
334.812
334.963
335.115
335.27
335.426
335.582
335.739
335.896
336.051
336.205
336.354
336.5
336.639
336.77
336.893
337.004
337.104
337.19
342.255
342.211
342.126
342.001
341.841
341.65
341.436
341.208
340.971
340.731
340.488
340.243
339.994
339.743
339.491
339.238
338.986
338.737
338.493
338.254
338.021
337.794
337.576
337.366
337.164
336.972
336.789
336.615
336.45
336.295
336.148
336.008
335.876
335.751
335.632
335.518
335.409
335.304
335.203
335.104
335.009
334.916
334.825
334.736
334.648
334.561
334.476
334.392
334.308
334.226
334.144
334.063
333.983
333.904
333.826
333.748
333.671
333.595
333.52
333.445
333.372
333.299
333.227
333.156
333.086
333.018
332.95
332.883
332.817
332.752
332.689
332.626
332.565
332.505
332.446
332.389
332.333
332.278
332.224
332.172
332.121
332.072
332.024
331.978
331.934
331.891
331.85
331.811
331.773
331.738
331.704
331.673
331.643
331.616
331.591
331.568
331.547
331.529
331.514
331.501
331.491
331.483
331.479
331.477
331.478
331.482
331.49
331.501
331.515
331.532
331.553
331.577
331.605
331.636
331.671
331.709
331.752
331.798
331.848
331.901
331.958
332.019
332.084
332.152
332.224
332.3
332.379
332.461
332.547
332.637
332.729
332.825
332.924
333.027
333.132
333.241
333.353
333.469
333.588
333.71
333.837
333.967
334.102
334.241
334.384
334.532
334.685
334.842
335.004
335.17
335.34
335.514
335.69
335.867
336.044
336.218
336.389
336.554
336.711
336.857
341.986
341.948
341.876
341.77
341.632
341.467
341.278
341.074
340.858
340.636
340.408
340.178
339.943
339.706
339.467
339.227
338.987
338.75
338.515
338.285
338.06
337.841
337.628
337.423
337.225
337.036
336.855
336.682
336.517
336.36
336.211
336.069
335.935
335.806
335.684
335.566
335.454
335.345
335.24
335.139
335.04
334.944
334.85
334.758
334.668
334.579
334.492
334.406
334.321
334.237
334.154
334.072
333.99
333.91
333.831
333.752
333.674
333.597
333.521
333.446
333.371
333.298
333.225
333.153
333.083
333.013
332.944
332.876
332.81
332.744
332.679
332.616
332.553
332.492
332.432
332.373
332.315
332.258
332.203
332.149
332.097
332.046
331.996
331.948
331.901
331.856
331.812
331.77
331.73
331.691
331.654
331.619
331.586
331.555
331.526
331.499
331.474
331.451
331.431
331.412
331.397
331.383
331.372
331.364
331.358
331.355
331.355
331.357
331.362
331.37
331.381
331.395
331.413
331.433
331.456
331.482
331.511
331.543
331.579
331.617
331.659
331.704
331.751
331.802
331.855
331.912
331.971
332.033
332.098
332.165
332.236
332.309
332.385
332.463
332.545
332.63
332.717
332.809
332.904
333.003
333.106
333.214
333.327
333.446
333.57
333.702
333.84
333.987
334.141
334.303
334.474
334.653
334.84
335.035
335.236
335.442
335.652
335.863
336.073
336.279
341.756
341.723
341.66
341.568
341.448
341.302
341.134
340.95
340.753
340.546
340.334
340.116
339.895
339.67
339.443
339.215
338.986
338.758
338.532
338.31
338.092
337.88
337.673
337.472
337.278
337.091
336.911
336.739
336.574
336.417
336.267
336.123
335.986
335.855
335.73
335.609
335.494
335.382
335.274
335.17
335.068
334.97
334.873
334.779
334.686
334.596
334.506
334.419
334.332
334.246
334.162
334.079
333.996
333.915
333.834
333.755
333.676
333.598
333.521
333.445
333.37
333.296
333.222
333.15
333.078
333.007
332.938
332.869
332.801
332.734
332.668
332.604
332.54
332.477
332.416
332.355
332.296
332.238
332.181
332.125
332.071
332.018
331.966
331.916
331.866
331.819
331.773
331.728
331.685
331.643
331.603
331.564
331.528
331.493
331.459
331.428
331.399
331.371
331.345
331.322
331.3
331.281
331.264
331.248
331.236
331.225
331.217
331.211
331.207
331.206
331.208
331.211
331.218
331.226
331.237
331.251
331.267
331.286
331.307
331.33
331.356
331.384
331.414
331.447
331.481
331.518
331.557
331.598
331.641
331.686
331.734
331.783
331.834
331.888
331.944
332.003
332.064
332.129
332.197
332.268
332.345
332.426
332.512
332.605
332.705
332.812
332.928
333.054
333.189
333.336
333.495
333.665
333.849
334.045
334.255
334.476
334.708
334.95
335.2
335.454
341.559
341.53
341.475
341.393
341.286
341.156
341.005
340.837
340.656
340.464
340.265
340.06
339.85
339.636
339.42
339.201
338.982
338.763
338.545
338.33
338.119
337.912
337.71
337.513
337.322
337.138
336.96
336.788
336.624
336.466
336.315
336.17
336.031
335.898
335.77
335.648
335.529
335.415
335.305
335.198
335.094
334.992
334.894
334.797
334.703
334.61
334.519
334.43
334.342
334.255
334.169
334.085
334.001
333.919
333.837
333.757
333.677
333.598
333.521
333.444
333.368
333.292
333.218
333.145
333.072
333.001
332.93
332.86
332.791
332.723
332.657
332.591
332.526
332.462
332.399
332.337
332.276
332.216
332.158
332.1
332.044
331.989
331.935
331.882
331.831
331.781
331.732
331.684
331.638
331.593
331.55
331.508
331.468
331.429
331.391
331.356
331.322
331.289
331.258
331.229
331.202
331.177
331.153
331.131
331.111
331.093
331.077
331.063
331.05
331.04
331.032
331.025
331.021
331.018
331.017
331.018
331.021
331.026
331.032
331.04
331.05
331.061
331.074
331.089
331.104
331.122
331.14
331.16
331.181
331.203
331.227
331.252
331.278
331.306
331.335
331.366
331.4
331.436
331.475
331.518
331.564
331.615
331.672
331.735
331.805
331.883
331.971
332.069
332.178
332.301
332.437
332.589
332.757
332.941
333.144
333.364
333.602
333.856
334.127
334.412
341.392
341.366
341.317
341.243
341.147
341.029
340.891
340.737
340.569
340.39
340.202
340.008
339.808
339.604
339.397
339.187
338.976
338.765
338.554
338.346
338.14
337.938
337.74
337.547
337.359
337.177
337.001
336.83
336.666
336.508
336.357
336.211
336.07
335.935
335.806
335.681
335.56
335.444
335.331
335.222
335.116
335.013
334.912
334.813
334.717
334.623
334.53
334.44
334.35
334.262
334.175
334.09
334.005
333.922
333.839
333.758
333.677
333.598
333.519
333.441
333.364
333.288
333.213
333.139
333.065
332.993
332.921
332.851
332.781
332.712
332.644
332.577
332.51
332.445
332.381
332.317
332.255
332.194
332.133
332.074
332.016
331.959
331.903
331.848
331.794
331.741
331.69
331.639
331.59
331.542
331.496
331.45
331.406
331.363
331.322
331.282
331.243
331.206
331.17
331.135
331.102
331.071
331.041
331.012
330.985
330.96
330.936
330.913
330.892
330.872
330.854
330.837
330.822
330.808
330.795
330.783
330.773
330.764
330.756
330.749
330.742
330.737
330.733
330.729
330.725
330.723
330.721
330.719
330.718
330.717
330.716
330.716
330.717
330.718
330.72
330.723
330.728
330.734
330.743
330.754
330.769
330.788
330.813
330.843
330.88
330.925
330.98
331.046
331.124
331.216
331.324
331.448
331.591
331.753
331.937
332.143
332.372
332.624
332.899
333.195
341.251
341.228
341.183
341.115
341.027
340.919
340.792
340.649
340.492
340.324
340.147
339.962
339.771
339.575
339.376
339.173
338.97
338.765
338.561
338.358
338.157
337.959
337.765
337.575
337.39
337.21
337.035
336.866
336.702
336.544
336.392
336.245
336.103
335.967
335.836
335.709
335.587
335.468
335.354
335.243
335.135
335.03
334.927
334.827
334.73
334.634
334.54
334.448
334.357
334.268
334.18
334.093
334.008
333.923
333.84
333.758
333.676
333.596
333.516
333.438
333.36
333.283
333.207
333.132
333.058
332.984
332.912
332.84
332.769
332.699
332.63
332.561
332.494
332.427
332.362
332.297
332.233
332.17
332.108
332.047
331.987
331.928
331.869
331.812
331.756
331.701
331.646
331.593
331.541
331.49
331.44
331.391
331.343
331.297
331.251
331.207
331.163
331.121
331.08
331.04
331.001
330.964
330.927
330.892
330.858
330.825
330.793
330.762
330.732
330.703
330.675
330.648
330.622
330.596
330.571
330.547
330.524
330.501
330.478
330.456
330.434
330.412
330.39
330.367
330.345
330.323
330.3
330.276
330.252
330.228
330.203
330.178
330.152
330.126
330.101
330.075
330.049
330.025
330.002
329.981
329.963
329.948
329.937
329.933
329.934
329.944
329.963
329.993
330.035
330.092
330.165
330.256
330.367
330.5
330.657
330.839
331.048
331.285
331.55
331.843
341.134
341.113
341.071
341.009
340.927
340.826
340.708
340.574
340.426
340.267
340.098
339.921
339.738
339.549
339.357
339.161
338.963
338.764
338.565
338.367
338.17
337.976
337.786
337.598
337.415
337.237
337.063
336.895
336.731
336.573
336.421
336.273
336.131
335.994
335.861
335.733
335.609
335.489
335.373
335.26
335.151
335.044
334.94
334.839
334.74
334.642
334.547
334.454
334.362
334.272
334.183
334.095
334.009
333.924
333.84
333.756
333.674
333.593
333.513
333.433
333.355
333.277
333.2
333.124
333.049
332.975
332.901
332.828
332.757
332.685
332.615
332.546
332.477
332.409
332.342
332.276
332.21
332.146
332.082
332.019
331.957
331.895
331.835
331.776
331.717
331.659
331.602
331.546
331.491
331.437
331.384
331.331
331.28
331.229
331.179
331.13
331.082
331.035
330.989
330.944
330.899
330.856
330.813
330.771
330.73
330.689
330.649
330.61
330.571
330.533
330.495
330.458
330.421
330.384
330.347
330.311
330.274
330.237
330.2
330.162
330.124
330.085
330.046
330.005
329.964
329.921
329.878
329.832
329.786
329.738
329.688
329.637
329.585
329.531
329.477
329.421
329.365
329.309
329.253
329.198
329.145
329.095
329.048
329.005
328.969
328.94
328.92
328.911
328.914
328.932
328.966
329.02
329.094
329.192
329.315
329.466
329.646
329.859
330.104
330.383
341.039
341.019
340.98
340.922
340.845
340.75
340.638
340.511
340.371
340.219
340.057
339.887
339.71
339.527
339.34
339.149
338.957
338.762
338.568
338.373
338.181
337.99
337.801
337.617
337.435
337.258
337.086
336.918
336.755
336.597
336.444
336.296
336.153
336.015
335.881
335.752
335.627
335.506
335.388
335.274
335.163
335.056
334.95
334.848
334.747
334.649
334.553
334.458
334.366
334.274
334.185
334.096
334.009
333.923
333.838
333.754
333.671
333.589
333.508
333.428
333.349
333.27
333.193
333.116
333.04
332.964
332.89
332.816
332.743
332.671
332.599
332.529
332.459
332.39
332.321
332.253
332.186
332.12
332.055
331.99
331.926
331.862
331.8
331.738
331.677
331.617
331.557
331.498
331.44
331.383
331.326
331.27
331.215
331.16
331.107
331.053
331.001
330.949
330.898
330.847
330.797
330.747
330.698
330.649
330.601
330.552
330.505
330.457
330.41
330.362
330.315
330.267
330.219
330.171
330.123
330.074
330.024
329.973
329.921
329.869
329.815
329.759
329.702
329.643
329.583
329.52
329.455
329.388
329.318
329.246
329.172
329.095
329.015
328.933
328.849
328.763
328.675
328.586
328.496
328.406
328.317
328.229
328.143
328.061
327.985
327.915
327.853
327.801
327.762
327.737
327.728
327.739
327.772
327.83
327.914
328.028
328.175
328.356
328.574
328.831
340.965
340.946
340.908
340.853
340.78
340.689
340.583
340.461
340.326
340.18
340.024
339.859
339.687
339.509
339.326
339.14
338.951
338.76
338.569
338.378
338.188
337.999
337.813
337.63
337.451
337.275
337.103
336.936
336.773
336.616
336.462
336.314
336.171
336.032
335.897
335.767
335.641
335.519
335.4
335.285
335.173
335.064
334.958
334.854
334.753
334.654
334.556
334.461
334.367
334.275
334.185
334.096
334.008
333.921
333.835
333.751
333.667
333.584
333.502
333.422
333.341
333.262
333.184
333.106
333.029
332.953
332.878
332.803
332.729
332.656
332.583
332.511
332.44
332.369
332.299
332.23
332.162
332.094
332.027
331.96
331.894
331.829
331.764
331.7
331.637
331.574
331.511
331.45
331.389
331.328
331.268
331.209
331.15
331.091
331.033
330.976
330.919
330.862
330.805
330.749
330.693
330.638
330.582
330.526
330.471
330.416
330.36
330.304
330.248
330.191
330.134
330.077
330.018
329.959
329.898
329.837
329.774
329.71
329.643
329.576
329.506
329.433
329.359
329.282
329.202
329.119
329.033
328.944
328.851
328.755
328.655
328.551
328.444
328.333
328.219
328.102
327.981
327.858
327.733
327.606
327.478
327.351
327.225
327.101
326.981
326.867
326.76
326.663
326.577
326.505
326.45
326.415
326.402
326.414
326.455
326.527
326.634
326.779
326.963
327.191
340.91
340.891
340.855
340.802
340.731
340.644
340.541
340.424
340.293
340.151
339.999
339.838
339.669
339.495
339.315
339.132
338.946
338.758
338.57
338.381
338.193
338.006
337.822
337.64
337.462
337.287
337.116
336.949
336.786
336.629
336.475
336.327
336.183
336.043
335.908
335.777
335.651
335.528
335.408
335.292
335.179
335.07
334.962
334.858
334.756
334.656
334.558
334.462
334.368
334.275
334.183
334.094
334.005
333.917
333.831
333.746
333.662
333.578
333.496
333.414
333.333
333.253
333.174
333.096
333.018
332.941
332.865
332.789
332.714
332.64
332.566
332.493
332.42
332.348
332.277
332.206
332.136
332.067
331.998
331.929
331.862
331.794
331.727
331.661
331.595
331.53
331.465
331.401
331.336
331.273
331.209
331.147
331.084
331.022
330.959
330.898
330.836
330.774
330.713
330.651
330.59
330.528
330.466
330.404
330.342
330.279
330.215
330.151
330.086
330.021
329.954
329.886
329.817
329.747
329.675
329.601
329.525
329.447
329.366
329.284
329.198
329.109
329.017
328.921
328.822
328.719
328.612
328.5
328.384
328.264
328.138
328.008
327.872
327.732
327.587
327.437
327.283
327.125
326.963
326.798
326.63
326.462
326.292
326.124
325.959
325.797
325.642
325.495
325.359
325.237
325.131
325.044
324.98
324.942
324.934
324.959
325.022
325.124
325.27
325.463
340.873
340.855
340.82
340.768
340.699
340.614
340.514
340.399
340.271
340.131
339.981
339.823
339.657
339.485
339.308
339.127
338.943
338.757
338.57
338.382
338.196
338.01
337.827
337.646
337.468
337.294
337.123
336.957
336.795
336.637
336.483
336.335
336.19
336.051
335.915
335.784
335.656
335.533
335.413
335.296
335.183
335.072
334.964
334.859
334.756
334.656
334.557
334.461
334.366
334.272
334.181
334.09
334.001
333.913
333.826
333.74
333.655
333.571
333.488
333.406
333.324
333.244
333.164
333.085
333.006
332.928
332.851
332.774
332.698
332.623
332.548
332.474
332.4
332.327
332.254
332.182
332.11
332.039
331.969
331.898
331.829
331.759
331.69
331.622
331.553
331.486
331.418
331.351
331.284
331.217
331.15
331.084
331.018
330.952
330.885
330.819
330.753
330.686
330.62
330.553
330.486
330.418
330.35
330.282
330.212
330.142
330.071
329.999
329.926
329.851
329.775
329.697
329.617
329.536
329.452
329.366
329.277
329.186
329.091
328.993
328.892
328.786
328.677
328.563
328.445
328.321
328.193
328.059
327.919
327.774
327.623
327.465
327.301
327.131
326.954
326.771
326.582
326.388
326.188
325.983
325.774
325.561
325.347
325.132
324.917
324.706
324.498
324.298
324.108
323.93
323.767
323.624
323.504
323.411
323.348
323.321
323.332
323.387
323.489
323.641
340.855
340.837
340.802
340.751
340.683
340.599
340.5
340.386
340.259
340.121
339.973
339.815
339.651
339.48
339.304
339.124
338.941
338.756
338.569
338.383
338.197
338.012
337.829
337.648
337.471
337.297
337.126
336.96
336.798
336.64
336.487
336.338
336.193
336.053
335.917
335.785
335.658
335.534
335.413
335.296
335.183
335.072
334.964
334.858
334.755
334.654
334.555
334.458
334.362
334.269
334.176
334.085
333.996
333.907
333.82
333.733
333.648
333.563
333.48
333.397
333.315
333.233
333.153
333.072
332.993
332.914
332.836
332.759
332.682
332.605
332.529
332.454
332.379
332.304
332.23
332.157
332.084
332.011
331.939
331.867
331.795
331.724
331.653
331.582
331.511
331.441
331.371
331.301
331.231
331.161
331.091
331.021
330.951
330.881
330.811
330.741
330.67
330.599
330.527
330.455
330.382
330.309
330.235
330.16
330.083
330.006
329.927
329.847
329.765
329.682
329.597
329.509
329.419
329.327
329.231
329.133
329.032
328.927
328.818
328.705
328.588
328.466
328.339
328.207
328.07
327.926
327.777
327.62
327.457
327.287
327.109
326.924
326.731
326.53
326.322
326.105
325.88
325.648
325.408
325.162
324.909
324.651
324.389
324.124
323.858
323.592
323.329
323.071
322.821
322.582
322.359
322.153
321.971
321.815
321.692
321.605
321.56
321.56
321.612
321.719
340.854
340.837
340.802
340.751
340.683
340.599
340.499
340.385
340.259
340.12
339.972
339.815
339.65
339.479
339.303
339.123
338.94
338.755
338.568
338.382
338.196
338.011
337.828
337.647
337.47
337.296
337.125
336.959
336.796
336.638
336.485
336.336
336.191
336.051
335.915
335.783
335.655
335.531
335.411
335.293
335.179
335.068
334.96
334.854
334.751
334.649
334.55
334.453
334.357
334.263
334.17
334.079
333.989
333.9
333.812
333.725
333.639
333.554
333.47
333.387
333.304
333.222
333.14
333.06
332.98
332.9
332.821
332.743
332.665
332.587
332.51
332.434
332.357
332.282
332.206
332.131
332.057
331.982
331.908
331.835
331.761
331.688
331.615
331.542
331.469
331.396
331.323
331.25
331.178
331.105
331.032
330.958
330.885
330.811
330.737
330.662
330.587
330.511
330.435
330.358
330.279
330.2
330.12
330.038
329.955
329.871
329.785
329.697
329.607
329.514
329.42
329.323
329.222
329.119
329.013
328.902
328.788
328.67
328.548
328.42
328.287
328.149
328.005
327.855
327.699
327.535
327.364
327.185
326.998
326.803
326.599
326.386
326.164
325.932
325.691
325.439
325.178
324.907
324.626
324.337
324.039
323.733
323.421
323.103
322.781
322.457
322.134
321.813
321.499
321.194
320.902
320.628
320.377
320.152
319.96
319.807
319.697
319.636
319.63
319.685
340.872
340.854
340.819
340.767
340.698
340.613
340.512
340.397
340.269
340.13
339.98
339.821
339.655
339.483
339.306
339.125
338.941
338.754
338.567
338.38
338.193
338.007
337.824
337.643
337.465
337.29
337.119
336.953
336.79
336.632
336.478
336.329
336.185
336.044
335.908
335.777
335.649
335.525
335.404
335.287
335.173
335.062
334.954
334.848
334.744
334.643
334.544
334.446
334.35
334.256
334.163
334.071
333.981
333.892
333.804
333.716
333.63
333.544
333.46
333.376
333.292
333.21
333.128
333.046
332.965
332.885
332.805
332.726
332.647
332.568
332.49
332.413
332.335
332.258
332.182
332.105
332.029
331.953
331.878
331.802
331.727
331.652
331.576
331.501
331.426
331.351
331.276
331.2
331.124
331.049
330.972
330.896
330.819
330.741
330.663
330.584
330.505
330.424
330.343
330.261
330.177
330.092
330.006
329.918
329.829
329.737
329.644
329.548
329.45
329.349
329.245
329.138
329.028
328.914
328.797
328.675
328.548
328.417
328.281
328.139
327.991
327.836
327.675
327.507
327.332
327.148
326.956
326.755
326.545
326.324
326.094
325.853
325.601
325.338
325.063
324.776
324.477
324.166
323.844
323.51
323.164
322.808
322.443
322.069
321.688
321.302
320.914
320.526
320.141
319.764
319.398
319.047
318.719
318.417
318.148
317.919
317.735
317.605
317.534
317.528
340.907
340.889
340.853
340.8
340.729
340.642
340.539
340.421
340.29
340.148
339.996
339.835
339.666
339.492
339.312
339.129
338.943
338.755
338.566
338.377
338.188
338.001
337.817
337.635
337.456
337.28
337.109
336.942
336.779
336.621
336.467
336.318
336.173
336.033
335.897
335.766
335.638
335.514
335.394
335.277
335.163
335.053
334.944
334.839
334.735
334.634
334.535
334.437
334.341
334.247
334.154
334.062
333.972
333.882
333.794
333.706
333.619
333.533
333.448
333.364
333.28
333.197
333.114
333.032
332.95
332.869
332.789
332.708
332.629
332.549
332.47
332.391
332.313
332.235
332.157
332.079
332.001
331.924
331.847
331.77
331.692
331.615
331.538
331.461
331.383
331.306
331.228
331.15
331.071
330.992
330.913
330.833
330.753
330.672
330.59
330.507
330.423
330.338
330.252
330.165
330.076
329.985
329.893
329.799
329.703
329.605
329.504
329.401
329.295
329.185
329.073
328.957
328.837
328.712
328.584
328.45
328.312
328.168
328.018
327.861
327.698
327.528
327.351
327.165
326.97
326.767
326.554
326.33
326.097
325.851
325.595
325.325
325.044
324.748
324.44
324.117
323.78
323.428
323.062
322.682
322.287
321.879
321.458
321.024
320.581
320.129
319.671
319.21
318.748
318.291
317.843
317.408
316.993
316.604
316.249
315.934
315.667
315.456
315.31
315.235
340.962
340.942
340.905
340.85
340.776
340.686
340.579
340.458