/*--------------------------------*- C++ -*----------------------------------*\
| =========                 |                                                 |
| \\      /  F ield         | OpenFOAM: The Open Source CFD Toolbox           |
|  \\    /   O peration     | Version:  2306                                  |
|   \\  /    A nd           | Website:  www.openfoam.com                      |
|    \\/     M anipulation  |                                                 |
\*---------------------------------------------------------------------------*/
FoamFile
{
    version     2.0;
    format      ascii;
    arch        "LSB;label=32;scalar=64";
    class       surfaceScalarField;
    location    "0.375";
    object      phi;
}
// * * * * * * * * * * * * * * * * * * * * * * * * * * * * * * * * * * * * * //

dimensions      [0 3 -1 0 0 0 0];

oriented        oriented;

internalField   nonuniform List<scalar> 
34640
(
0.0049244
7.55987e-05
0.00478599
0.000138414
0.00463052
0.000155467
0.00447385
0.000156669
0.00431583
0.000158023
0.00415467
0.000161162
0.00399075
0.00016392
0.00382542
0.00016533
0.00366031
0.000165105
0.00349681
0.000163498
0.00333583
0.000160982
0.00317796
0.000157867
0.00302375
0.000154218
0.00287375
0.000149992
0.00272862
0.000145136
0.00258899
0.000139632
0.00245554
0.000133442
0.00232889
0.00012665
0.0022094
0.000119491
0.00209746
0.000111939
0.00199339
0.000104075
0.00189738
9.60096e-05
0.00180951
8.78651e-05
0.00172974
7.97707e-05
0.00165789
7.18536e-05
0.00159366
6.42331e-05
0.00153664
5.70134e-05
0.00148636
5.02795e-05
0.00144227
4.40938e-05
0.00140377
3.84959e-05
0.00137027
3.35023e-05
0.00134116
2.91102e-05
0.00131586
2.52989e-05
0.00129383
2.2036e-05
0.00127455
1.92787e-05
0.00125757
1.69788e-05
0.00124249
1.50813e-05
0.00122897
1.35227e-05
0.00121671
1.22528e-05
0.00120548
1.12315e-05
0.00119506
1.04219e-05
0.00118527
9.78877e-06
0.00117597
9.29928e-06
0.00116705
8.92445e-06
0.00115841
8.6395e-06
0.00114998
8.42381e-06
0.00114172
8.26058e-06
0.00113359
8.13622e-06
0.00112555
8.0399e-06
0.00111758
7.9631e-06
0.00110969
7.89924e-06
0.00110184
7.84338e-06
0.00109405
7.79193e-06
0.00108631
7.74237e-06
0.00107861
7.69308e-06
0.00107097
7.6431e-06
0.00106338
7.59199e-06
0.00105584
7.5397e-06
0.00104835
7.48647e-06
0.00104092
7.43272e-06
0.00103354
7.37902e-06
0.00102622
7.32602e-06
0.00101894
7.27442e-06
0.00101172
7.22492e-06
0.00100454
7.17824e-06
0.000997403
7.13505e-06
0.000990306
7.09604e-06
0.000983245
7.06181e-06
0.000976212
7.03297e-06
0.000969202
7.01006e-06
0.000962208
6.99359e-06
0.000955224
6.984e-06
0.000948242
6.98173e-06
0.000941255
6.98719e-06
0.000934254
7.00081e-06
0.000927231
7.02301e-06
0.000920177
7.05417e-06
0.000913082
7.09469e-06
0.000905938
7.14493e-06
0.000898732
7.20526e-06
0.000891456
7.27605e-06
0.000884099
7.35766e-06
0.000876648
7.45048e-06
0.000869093
7.55487e-06
0.000861422
7.67124e-06
0.000853622
7.79997e-06
0.000845681
7.94146e-06
0.000837584
8.09611e-06
0.00082932
8.26434e-06
0.000820874
8.44657e-06
0.00081223
8.64321e-06
0.000803376
8.85468e-06
0.000794294
9.08139e-06
0.000784971
9.32374e-06
0.000775388
9.58212e-06
0.000765532
9.8569e-06
0.000755383
1.01484e-05
0.000744926
1.0457e-05
0.000734143
1.07828e-05
0.000723017
1.1126e-05
0.000711531
1.14869e-05
0.000699665
1.18652e-05
0.000687404
1.2261e-05
0.00067473
1.26739e-05
0.000661627
1.31036e-05
0.000648077
1.35496e-05
0.000634066
1.40112e-05
0.000619579
1.44874e-05
0.000604602
1.49769e-05
0.000589124
1.54779e-05
0.000573135
1.59887e-05
0.000556628
1.65071e-05
0.000539598
1.70303e-05
0.000522043
1.7555e-05
0.000503965
1.80775e-05
0.000485372
1.85937e-05
0.000466273
1.90986e-05
0.000446686
1.9587e-05
0.000426633
2.00528e-05
0.000406144
2.04897e-05
0.000385253
2.08906e-05
0.000364005
2.12481e-05
0.00034245
2.15544e-05
0.000320649
2.18017e-05
0.000298667
2.19821e-05
0.000276579
2.2088e-05
0.000254466
2.21123e-05
0.000232417
2.20489e-05
0.000210525
2.18927e-05
0.000188884
2.16402e-05
0.000167595
2.12893e-05
0.000146756
2.08395e-05
0.000126464
2.02917e-05
0.000106816
1.96477e-05
8.79064e-05
1.89099e-05
6.98265e-05
1.80799e-05
5.26681e-05
1.71584e-05
3.65225e-05
1.61456e-05
2.14786e-05
1.50439e-05
7.61772e-06
1.38609e-05
-5.00081e-06
1.26185e-05
-1.63468e-05
1.13461e-05
-2.64268e-05
1.008e-05
-3.52942e-05
8.86736e-06
-4.30325e-05
7.73836e-06
-4.97254e-05
6.69285e-06
-5.54257e-05
5.70027e-06
-6.01457e-05
4.72003e-06
-6.38758e-05
3.73008e-06
-6.66323e-05
2.75648e-06
-6.85149e-05
1.88252e-06
-6.96957e-05
1.18081e-06
-7.03403e-05
6.44524e-07
-7.05141e-05
1.73845e-07
-7.0222e-05
-2.92104e-07
-6.95085e-05
-7.13534e-07
-6.84677e-05
-1.04078e-06
-6.71151e-05
-1.35257e-06
-6.5329e-05
-1.78615e-06
-2.3902e-06
-6.29388e-05
0.00503752
3.80749e-05
0.0050774
9.85349e-05
0.00509715
0.00013572
0.00510102
0.000152795
0.00509795
0.000161096
0.00509063
0.000168478
0.0050778
0.000176757
0.00505833
0.000184798
0.00503218
0.00019126
0.005
0.000195672
0.00496268
0.000198302
0.00492096
0.000199591
0.00487537
0.000199809
0.00482632
0.000199042
0.00477418
0.000197273
0.00471935
0.000194459
0.0046622
0.000190594
0.00460311
0.000185744
0.00454259
0.000180009
0.00448106
0.000173464
0.00441894
0.0001662
0.00435661
0.000158338
0.00429445
0.00015002
0.00423282
0.000141403
0.00417203
0.000132646
0.00411236
0.000123904
0.00405405
0.000115322
0.0039973
0.000107028
0.00394227
9.91266e-05
0.00388906
9.17009e-05
0.00383776
8.48067e-05
0.00378839
7.84785e-05
0.00374096
7.27269e-05
0.00369545
6.75469e-05
0.00365181
6.29162e-05
0.00360998
5.88144e-05
0.00356981
5.52468e-05
0.00353128
5.20522e-05
0.00349431
4.92236e-05
0.00345881
4.67368e-05
0.00342468
4.45541e-05
0.00339183
4.26376e-05
0.00336017
4.09515e-05
0.00332964
3.94628e-05
0.00330013
3.81422e-05
0.00327159
3.69637e-05
0.00324395
3.59053e-05
0.00321714
3.49481e-05
0.0031911
3.40761e-05
0.00316579
3.32759e-05
0.00314115
3.25365e-05
0.00311715
3.18487e-05
0.00309373
3.12053e-05
0.00307087
3.06005e-05
0.00304854
3.00297e-05
0.00302669
2.94895e-05
0.00300531
2.89772e-05
0.00298435
2.84908e-05
0.00296381
2.8029e-05
0.00294365
2.75909e-05
0.00292386
2.71758e-05
0.0029044
2.67834e-05
0.00288526
2.64136e-05
0.00286642
2.60665e-05
0.00284785
2.57421e-05
0.00282955
2.5441e-05
0.00281148
2.51632e-05
0.00279363
2.49094e-05
0.00277599
2.468e-05
0.00275852
2.44755e-05
0.00274122
2.42963e-05
0.00272406
2.41429e-05
0.00270703
2.40158e-05
0.0026901
2.39156e-05
0.00267326
2.38429e-05
0.00265648
2.37986e-05
0.00263975
2.37832e-05
0.00262305
2.37976e-05
0.00260635
2.38427e-05
0.00258964
2.39191e-05
0.00257288
2.40279e-05
0.00255607
2.41699e-05
0.00253918
2.43463e-05
0.00252217
2.4558e-05
0.00250504
2.48062e-05
0.00248775
2.50921e-05
0.00247027
2.54169e-05
0.00245259
2.57821e-05
0.00243466
2.6189e-05
0.00241647
2.6639e-05
0.00239798
2.71337e-05
0.00237916
2.76747e-05
0.00235998
2.82636e-05
0.0023404
2.89021e-05
0.00232039
2.95921e-05
0.00229991
3.03353e-05
0.00227892
3.11335e-05
0.00225739
3.19885e-05
0.00223527
3.29023e-05
0.00221252
3.38766e-05
0.0021891
3.49132e-05
0.00216495
3.60137e-05
0.00214003
3.71797e-05
0.00211429
3.84126e-05
0.00208768
3.97126e-05
0.00206015
4.10822e-05
0.00203164
4.2522e-05
0.00200209
4.40323e-05
0.00197146
4.56127e-05
0.00193967
4.72626e-05
0.00190668
4.89814e-05
0.00187242
5.07673e-05
0.00183683
5.26174e-05
0.00179986
5.45282e-05
0.00176144
5.64948e-05
0.00172152
5.8511e-05
0.00168005
6.05694e-05
0.00163698
6.26609e-05
0.00159226
6.47746e-05
0.00154585
6.68976e-05
0.00149772
6.9015e-05
0.00144786
7.11093e-05
0.00139626
7.31606e-05
0.00134291
7.51464e-05
0.00128785
7.70413e-05
0.00123112
7.88168e-05
0.0011728
8.04417e-05
0.00111296
8.18819e-05
0.00105175
8.31003e-05
0.000989337
8.40575e-05
0.000925914
8.47122e-05
0.000861732
8.50218e-05
0.000797079
8.49442e-05
0.000732288
8.44388e-05
0.000667729
8.34691e-05
0.000603804
8.20052e-05
0.000540935
8.00268e-05
0.000479554
7.75275e-05
0.000420077
7.45202e-05
0.000362899
7.10393e-05
0.000308371
6.71466e-05
0.000256793
6.29244e-05
0.000208405
5.84679e-05
0.000163396
5.38763e-05
0.000121903
4.92309e-05
8.40098e-05
4.45863e-05
4.97198e-05
3.99902e-05
1.90189e-05
3.54209e-05
-8.0315e-06
3.07805e-05
-3.15763e-05
2.63012e-05
-5.18457e-05
2.21519e-05
-6.92317e-05
1.85669e-05
-8.39511e-05
1.53638e-05
-9.61344e-05
1.23571e-05
-0.000105928
9.50174e-06
-0.000113559
6.91721e-06
-0.00011931
4.70994e-06
-0.000123346
2.68404e-06
-0.000125661
5.28638e-07
-1.85122e-06
-0.0001262
0.00501445
2.36272e-05
0.00504447
6.85094e-05
0.00507418
0.000106011
0.00509859
0.000128388
0.00511781
0.000141877
0.00513503
0.000151254
0.00515196
0.000159828
0.00516818
0.000168576
0.00518272
0.000176724
0.00519492
0.000183472
0.00520465
0.000188572
0.00521208
0.000192158
0.0052174
0.000194495
0.00522066
0.000195784
0.00522183
0.000196102
0.00522084
0.000195444
0.00521764
0.000193794
0.00521223
0.000191159
0.00520467
0.000187567
0.00519502
0.000183107
0.00518337
0.000177854
0.0051698
0.000171904
0.00515445
0.000165376
0.00513745
0.000158404
0.00511897
0.000151128
0.00509918
0.000143693
0.00507827
0.000136234
0.00505642
0.000128878
0.00503381
0.000121737
0.0050106
0.000114901
0.00498697
0.000108442
0.00496304
0.000102411
0.00493893
9.68356e-05
0.00491474
9.17312e-05
0.00489056
8.70969e-05
0.00486646
8.29223e-05
0.00484252
7.91802e-05
0.00481876
7.5816e-05
0.00479519
7.27956e-05
0.00477183
7.00941e-05
0.0047487
6.76843e-05
0.0047258
6.55357e-05
0.00470313
6.36172e-05
0.0046807
6.1899e-05
0.00465849
6.03538e-05
0.00463649
5.8957e-05
0.00461471
5.76872e-05
0.00459313
5.65259e-05
0.00457175
5.54573e-05
0.00455056
5.44677e-05
0.00452955
5.35459e-05
0.00450872
5.26826e-05
0.00448805
5.18701e-05
0.00446755
5.11022e-05
0.00444721
5.03742e-05
0.00442701
4.96823e-05
0.00440697
4.90237e-05
0.00438706
4.83964e-05
0.00436729
4.77989e-05
0.00434765
4.72304e-05
0.00432814
4.66905e-05
0.00430874
4.6179e-05
0.00428946
4.5696e-05
0.00427028
4.5242e-05
0.00425121
4.48174e-05
0.00423223
4.4423e-05
0.00421333
4.40597e-05
0.00419451
4.37283e-05
0.00417576
4.34298e-05
0.00415707
4.31655e-05
0.00413843
4.29364e-05
0.00411983
4.27433e-05
0.00410126
4.25874e-05
0.0040827
4.24702e-05
0.00406415
4.23929e-05
0.0040456
4.2357e-05
0.00402702
4.23641e-05
0.0040084
4.24158e-05
0.00398973
4.25136e-05
0.00397099
4.26594e-05
0.00395216
4.2855e-05
0.00393323
4.31024e-05
0.00391417
4.34035e-05
0.00389497
4.37606e-05
0.0038756
4.41759e-05
0.00385604
4.46518e-05
0.00383626
4.51909e-05
0.00381625
4.57958e-05
0.00379597
4.64693e-05
0.00377539
4.72144e-05
0.00375449
4.80342e-05
0.00373324
4.89319e-05
0.00371159
4.99109e-05
0.00368952
5.09747e-05
0.00366698
5.21272e-05
0.00364394
5.33721e-05
0.00362036
5.47134e-05
0.0035962
5.61552e-05
0.0035714
5.77019e-05
0.00354592
5.93576e-05
0.0035197
6.11269e-05
0.0034927
6.30141e-05
0.00346486
6.50238e-05
0.00343611
6.71603e-05
0.0034064
6.94277e-05
0.00337565
7.18311e-05
0.00334379
7.43746e-05
0.00331076
7.70623e-05
0.00327648
7.98973e-05
0.00324086
8.28822e-05
0.00320382
8.60211e-05
0.00316527
8.9316e-05
0.00312512
9.27678e-05
0.00308327
9.63766e-05
0.00303963
0.000100141
0.00299408
0.00010406
0.00294652
0.000108128
0.00289684
0.000112339
0.00284493
0.000116685
0.00279067
0.000121155
0.00273395
0.000125735
0.00267466
0.000130408
0.00261266
0.000135152
0.00254787
0.000139943
0.00248016
0.000144749
0.00240944
0.000149535
0.00233563
0.000154259
0.00225863
0.000158874
0.00217841
0.000163323
0.00209492
0.000167546
0.00200816
0.00017147
0.00191817
0.000175017
0.00182501
0.000178101
0.00172882
0.00018063
0.00162978
0.00018251
0.00152815
0.000183635
0.00142428
0.000183901
0.0013186
0.000183201
0.00121169
0.000181438
0.0011042
0.000178522
0.000996964
0.000174385
0.000890905
0.000168984
0.000787062
0.000162311
0.000686537
0.000154401
0.00059042
0.000145348
0.000499706
0.0001353
0.000415221
0.000124475
0.000337498
0.000113145
0.000266618
0.00010166
0.00020253
9.03896e-05
0.000145052
7.96296e-05
9.40762e-05
6.95427e-05
4.92379e-05
6.02022e-05
1.0437e-05
5.1158e-05
-2.27265e-05
4.26652e-05
-5.07728e-05
3.49635e-05
-7.43895e-05
2.83266e-05
-9.39135e-05
2.2208e-05
-0.000109582
1.61975e-05
1.02468e-05
-0.00012168
0.00500634
1.72885e-05
0.00502385
5.09992e-05
0.00504705
8.28146e-05
0.00506939
0.000106043
0.00508908
0.000122188
0.00510686
0.000133478
0.00512443
0.000142249
0.00514265
0.000150363
0.00516108
0.000158285
0.00517925
0.000165303
0.00519682
0.000171003
0.00521368
0.000175303
0.00522985
0.000178325
0.00524536
0.00018027
0.00526017
0.000181294
0.00527418
0.000181439
0.00528726
0.000180714
0.00529929
0.000179122
0.00531018
0.000176682
0.00531983
0.000173451
0.00532819
0.000169499
0.00533519
0.000164905
0.0053408
0.000159764
0.00534502
0.000154185
0.00534786
0.000148282
0.00534938
0.000142174
0.00534964
0.000135976
0.00534872
0.000129797
0.00534672
0.000123736
0.00534375
0.000117877
0.0053399
0.000112288
0.00533529
0.000107021
0.00533001
0.000102111
0.00532417
9.75786e-05
0.00531783
9.34302e-05
0.0053111
8.96588e-05
0.00530403
8.62477e-05
0.00529667
8.31753e-05
0.00528905
8.04144e-05
0.00528121
7.79393e-05
0.00527316
7.57265e-05
0.00526495
7.37517e-05
0.00525658
7.199e-05
0.00524806
7.04163e-05
0.0052394
6.90071e-05
0.00523062
6.77405e-05
0.00522171
6.65971e-05
0.00521268
6.55598e-05
0.00520352
6.46136e-05
0.00519424
6.3746e-05
0.00518484
6.29459e-05
0.00517532
6.22044e-05
0.00516568
6.15138e-05
0.00515591
6.0868e-05
0.00514602
6.02622e-05
0.00513601
5.96925e-05
0.00512588
5.9156e-05
0.00511563
5.86506e-05
0.00510525
5.81749e-05
0.00509475
5.77279e-05
0.00508413
5.73093e-05
0.00507339
5.6919e-05
0.00506253
5.65574e-05
0.00505155
5.6225e-05
0.00504044
5.59227e-05
0.00502922
5.56514e-05
0.00501786
5.54123e-05
0.00500638
5.52068e-05
0.00499478
5.50362e-05
0.00498304
5.49023e-05
0.00497117
5.48068e-05
0.00495916
5.47508e-05
0.00494702
5.47362e-05
0.00493472
5.47651e-05
0.00492227
5.48395e-05
0.00490967
5.49615e-05
0.0048969
5.51334e-05
0.00488396
5.53577e-05
0.00487083
5.56366e-05
0.00485752
5.5973e-05
0.00484401
5.63695e-05
0.00483028
5.68291e-05
0.00481633
5.73547e-05
0.00480214
5.79497e-05
0.0047877
5.86173e-05
0.00477299
5.93613e-05
0.00475799
6.01853e-05
0.0047427
6.10933e-05
0.00472708
6.20896e-05
0.00471111
6.31785e-05
0.00469478
6.43647e-05
0.00467806
6.56531e-05
0.00466092
6.70488e-05
0.00464334
6.85573e-05
0.00462528
7.01841e-05
0.00460672
7.19352e-05
0.00458762
7.38169e-05
0.00456794
7.58355e-05
0.00454764
7.79978e-05
0.00452669
8.03108e-05
0.00450503
8.27817e-05
0.00448263
8.54179e-05
0.00445943
8.8227e-05
0.00443537
9.12171e-05
0.0044104
9.43959e-05
0.00438446
9.7772e-05
0.00435748
0.000101353
0.00432939
0.000105149
0.00430013
0.000109166
0.0042696
0.000113412
0.00423772
0.000117897
0.00420441
0.000122627
0.00416957
0.00012761
0.00413309
0.000132851
0.00409488
0.000138356
0.00405481
0.000144128
0.00401277
0.000150172
0.00396862
0.000156487
0.00392223
0.000163072
0.00387346
0.000169925
0.00382216
0.000177039
0.00376816
0.000184405
0.0037113
0.000192007
0.00365142
0.00019983
0.00358832
0.000207848
0.00352182
0.000216032
0.00345173
0.000224347
0.00337786
0.000232747
0.0033
0.00024118
0.00321797
0.000249584
0.00313155
0.000257884
0.00304057
0.000265996
0.00294486
0.000273813
0.00284426
0.000281231
0.00273864
0.000288136
0.00262788
0.000294385
0.00251196
0.00029983
0.00239085
0.000304306
0.00226465
0.000307642
0.00213351
0.000309654
0.00199775
0.000310154
0.00185777
0.000308957
0.00171419
0.000305888
0.00156781
0.000300782
0.00141968
0.000293479
0.00127113
0.000283853
0.00112378
0.000271828
0.000979505
0.000257417
0.000840416
0.000240748
0.000708699
0.000222107
0.000586385
0.000201943
0.000475067
0.000180861
0.000375727
0.000159542
0.000288126
0.000138759
0.000211519
0.000119272
0.00014488
0.000101603
8.72451e-05
8.59611e-05
3.79786e-05
7.14745e-05
-3.67438e-06
5.78504e-05
4.50771e-05
-3.85047e-05
0.00500365
1.36379e-05
0.00501435
4.03032e-05
0.00503119
6.59761e-05
0.00504934
8.78854e-05
0.00506702
0.00010451
0.00508362
0.000116875
0.00509961
0.000126268
0.0051158
0.000134164
0.00513256
0.000141532
0.00514965
0.000148213
0.00516675
0.000153906
0.00518365
0.000158395
0.0052003
0.000161682
0.00521666
0.000163903
0.00523276
0.000165199
0.00524854
0.000165659
0.00526393
0.000165325
0.00527883
0.000164222
0.00529313
0.000162374
0.00530676
0.000159824
0.00531963
0.000156632
0.00533166
0.00015287
0.00534281
0.000148619
0.00535303
0.000143969
0.00536229
0.000139016
0.00537061
0.000133858
0.00537799
0.000128593
0.00538448
0.000123312
0.00539011
0.0001181
0.00539496
0.00011303
0.00539908
0.000108165
0.00540255
0.00010355
0.00540544
9.92219e-05
0.00540782
9.52014e-05
0.00540975
9.14984e-05
0.0054113
8.81121e-05
0.00541251
8.50351e-05
0.00541343
8.22559e-05
0.00541409
7.97559e-05
0.00541452
7.75139e-05
0.00541473
7.55091e-05
0.00541476
7.37209e-05
0.00541462
7.21292e-05
0.00541433
7.07135e-05
0.00541388
6.94538e-05
0.00541329
6.83314e-05
0.00541256
6.7329e-05
0.00541169
6.64312e-05
0.00541068
6.56244e-05
0.00540952
6.48969e-05
0.00540823
6.42383e-05
0.0054068
6.36402e-05
0.00540522
6.30953e-05
0.00540349
6.25974e-05
0.00540161
6.21417e-05
0.00539957
6.17243e-05
0.00539739
6.13422e-05
0.00539505
6.09931e-05
0.00539255
6.06755e-05
0.00538988
6.03883e-05
0.00538706
6.01311e-05
0.00538408
5.99037e-05
0.00538093
5.97065e-05
0.00537761
5.95399e-05
0.00537413
5.94049e-05
0.00537048
5.93024e-05
0.00536666
5.92339e-05
0.00536267
5.92007e-05
0.0053585
5.92045e-05
0.00535415
5.92471e-05
0.00534963
5.93303e-05
0.00534492
5.94559e-05
0.00534003
5.96262e-05
0.00533496
5.98434e-05
0.00532969
6.01099e-05
0.00532422
6.04284e-05
0.00531855
6.08016e-05
0.00531268
6.12323e-05
0.00530659
6.17237e-05
0.00530028
6.22789e-05
0.00529375
6.29013e-05
0.00528699
6.35944e-05
0.00527998
6.43621e-05
0.00527272
6.52084e-05
0.0052652
6.61373e-05
0.00525741
6.71535e-05
0.00524933
6.82615e-05
0.00524096
6.94664e-05
0.00523227
7.07734e-05
0.00522326
7.2188e-05
0.00521391
7.37161e-05
0.0052042
7.53638e-05
0.00519411
7.71377e-05
0.00518363
7.90447e-05
0.00517272
8.10918e-05
0.00516137
8.32868e-05
0.00514955
8.56376e-05
0.00513723
8.81525e-05
0.00512439
9.08405e-05
0.00511099
9.37105e-05
0.005097
9.67722e-05
0.00508238
0.000100036
0.00506709
0.000103511
0.0050511
0.00010721
0.00503436
0.000111142
0.00501681
0.00011532
0.0049984
0.000119756
0.00497909
0.000124462
0.00495881
0.00012945
0.00493749
0.000134733
0.00491506
0.000140323
0.00489145
0.000146234
0.00486658
0.000152478
0.00484037
0.000159068
0.00481271
0.000166015
0.00478351
0.000173331
0.00475265
0.000181025
0.00472003
0.000189108
0.00468552
0.000197588
0.00464897
0.000206469
0.00461025
0.000215757
0.00456921
0.000225452
0.00452566
0.000235551
0.00447944
0.00024605
0.00443035
0.000256937
0.00437819
0.000268195
0.00432273
0.000279803
0.00426375
0.00029173
0.00420099
0.000303938
0.0041342
0.000316379
0.00406309
0.000328992
0.00398738
0.000341707
0.00390676
0.000354435
0.0038209
0.000367081
0.00372951
0.000379533
0.00363223
0.000391658
0.00352876
0.000403305
0.00341876
0.000414302
0.00330194
0.000424462
0.00317802
0.000433575
0.00304677
0.000441407
0.00290804
0.000447687
0.00276177
0.000452161
0.00260798
0.000454571
0.00244686
0.000454596
0.00227879
0.000451925
0.00210436
0.000446255
0.00192447
0.000437313
0.00174033
0.00042488
0.00155364
0.000408797
0.00136663
0.000388959
0.00118213
0.000365362
0.0010035
0.000338171
0.000834444
0.000307813
0.000678622
0.000275094
0.000539023
0.000241202
0.000417475
0.000207509
0.000313559
0.000175391
0.000225366
0.000146043
0.000120095
0.000150348
0.00500249
1.11484e-05
0.00500982
3.29723e-05
0.00502171
5.40913e-05
0.00503621
7.33814e-05
0.00505142
8.93033e-05
0.00506648
0.000101814
0.00508114
0.000111609
0.00509573
0.000119566
0.00511075
0.000126517
0.00512619
0.000132769
0.00514189
0.000138212
0.00515762
0.000142662
0.00517324
0.00014606
0.00518869
0.000148451
0.00520396
0.000149932
0.00521902
0.0001506
0.00523382
0.000150523
0.0052483
0.000149744
0.00526237
0.000148299
0.00527597
0.000146228
0.00528902
0.000143583
0.00530146
0.000140427
0.00531325
0.00013683
0.00532435
0.000132871
0.00533473
0.000128631
0.00534439
0.000124194
0.00535334
0.000119643
0.0053616
0.000115056
0.00536919
0.000110506
0.00537617
0.000106056
0.00538257
0.000101761
0.00538846
9.76651e-05
0.00539388
9.38002e-05
0.00539889
9.01884e-05
0.00540355
8.68419e-05
0.00540789
8.37648e-05
0.00541197
8.09553e-05
0.00541582
7.84064e-05
0.00541947
7.61058e-05
0.00542295
7.40374e-05
0.00542628
7.2184e-05
0.00542947
7.05283e-05
0.00543254
6.90535e-05
0.00543551
6.77429e-05
0.00543839
6.65798e-05
0.00544117
6.55484e-05
0.00544387
6.46335e-05
0.00544648
6.38215e-05
0.005449
6.31003e-05
0.00545144
6.2459e-05
0.00545379
6.18883e-05
0.00545605
6.13802e-05
0.00545822
6.09277e-05
0.00546029
6.05252e-05
0.00546226
6.01678e-05
0.00546413
5.98516e-05
0.0054659
5.95738e-05
0.00546756
5.9332e-05
0.00546911
5.91245e-05
0.00547055
5.89503e-05
0.00547188
5.88086e-05
0.00547308
5.86995e-05
0.00547416
5.8623e-05
0.00547512
5.85796e-05
0.00547596
5.85703e-05
0.00547666
5.8596e-05
0.00547724
5.8658e-05
0.00547768
5.87579e-05
0.00547799
5.88972e-05
0.00547816
5.90779e-05
0.00547819
5.93019e-05
0.00547807
5.95713e-05
0.00547781
5.98884e-05
0.0054774
6.02557e-05
0.00547683
6.06758e-05
0.00547611
6.11517e-05
0.00547522
6.16862e-05
0.00547417
6.22825e-05
0.00547295
6.29441e-05
0.00547156
6.36745e-05
0.00546998
6.44774e-05
0.00546822
6.53569e-05
0.00546626
6.63171e-05
0.00546411
6.73625e-05
0.00546175
6.8498e-05
0.00545917
6.97283e-05
0.00545638
7.1059e-05
0.00545335
7.24955e-05
0.00545008
7.40439e-05
0.00544656
7.57103e-05
0.00544277
7.75015e-05
0.00543871
7.94245e-05
0.00543436
8.14866e-05
0.00542971
8.36958e-05
0.00542474
8.60603e-05
0.00541944
8.85889e-05
0.00541379
9.12908e-05
0.00540776
9.41756e-05
0.00540135
9.72536e-05
0.00539452
0.000100535
0.00538726
0.000104033
0.00537954
0.000107757
0.00537133
0.00011172
0.00536261
0.000115936
0.00535333
0.000120417
0.00534347
0.000125179
0.005333
0.000130235
0.00532186
0.0001356
0.00531002
0.000141291
0.00529742
0.000147324
0.00528403
0.000153715
0.00526979
0.000160481
0.00525462
0.00016764
0.00523848
0.000175209
0.00522129
0.000183205
0.00520298
0.000191646
0.00518345
0.000200549
0.00516263
0.00020993
0.00514041
0.000219805
0.00511669
0.00023019
0.00509135
0.000241098
0.00506427
0.00025254
0.00503529
0.000264525
0.00500428
0.000277061
0.00497107
0.000290151
0.00493547
0.000303792
0.00489729
0.00031798
0.00485632
0.000332701
0.00481232
0.000347938
0.00476504
0.000363661
0.0047142
0.000379834
0.0046595
0.000396409
0.0046006
0.000413327
0.00453717
0.000430515
0.00446882
0.000447884
0.00439515
0.000465331
0.00431572
0.000482731
0.00423009
0.000499937
0.00413777
0.000516781
0.00403827
0.000533069
0.0039311
0.000548578
0.00381574
0.000563053
0.00369167
0.000576225
0.00355845
0.000587794
0.00341563
0.000597415
0.00326284
0.000604715
0.0030998
0.000609292
0.00292642
0.000610697
0.00274278
0.000608513
0.00254923
0.000602348
0.00234647
0.000591724
0.00213561
0.000576222
0.00191826
0.000555519
0.00169665
0.000529426
0.00147386
0.000497881
0.00125407
0.000460993
0.00104244
0.000419139
0.000844691
0.000373137
0.000666247
0.000324487
0.000275392
0.00051095
0.00500185
9.29992e-06
0.00500728
2.75392e-05
0.00501604
4.5333e-05
0.00502755
6.18695e-05
0.00504038
7.64715e-05
0.00505372
8.8477e-05
0.00506711
9.82164e-05
0.00508051
0.000106167
0.00509415
0.000112874
0.00510819
0.000118736
0.00512255
0.000123849
0.00513708
0.000128133
0.00515162
0.000131516
0.00516608
0.000133993
0.0051804
0.000135612
0.00519455
0.000136453
0.00520848
0.000136587
0.00522216
0.000136074
0.0052355
0.000134956
0.00524845
0.000133277
0.00526095
0.000131082
0.00527295
0.000128428
0.00528441
0.000125374
0.00529529
0.00012199
0.00530557
0.000118345
0.00531526
0.000114511
0.00532434
0.000110558
0.00533284
0.000106556
0.00534078
0.000102566
0.0053482
9.8644e-05
0.00535512
9.48383e-05
0.0053616
9.11883e-05
0.00536767
8.77244e-05
0.00537339
8.44686e-05
0.0053788
8.14347e-05
0.00538393
7.86299e-05
0.00538883
7.60555e-05
0.00539353
7.37079e-05
0.00539806
7.15791e-05
0.00540244
6.96573e-05
0.00540669
6.79292e-05
0.00541084
6.63808e-05
0.0054149
6.4998e-05
0.00541887
6.37671e-05
0.00542278
6.26743e-05
0.00542662
6.1706e-05
0.0054304
6.08494e-05
0.00543413
6.00926e-05
0.00543781
5.94248e-05
0.00544143
5.88364e-05
0.005445
5.83187e-05
0.00544852
5.78644e-05
0.00545198
5.74672e-05
0.00545538
5.71216e-05
0.00545872
5.68233e-05
0.00546201
5.65684e-05
0.00546523
5.63542e-05
0.00546838
5.61784e-05
0.00547147
5.60392e-05
0.00547448
5.59357e-05
0.00547742
5.58671e-05
0.00548029
5.58333e-05
0.00548308
5.58344e-05
0.00548579
5.5871e-05
0.00548841
5.59437e-05
0.00549095
5.60537e-05
0.00549341
5.62023e-05
0.00549578
5.63908e-05
0.00549805
5.66211e-05
0.00550024
5.68949e-05
0.00550232
5.72144e-05
0.00550431
5.75818e-05
0.0055062
5.79995e-05
0.00550799
5.847e-05
0.00550967
5.89961e-05
0.00551124
5.95809e-05
0.0055127
6.02274e-05
0.00551404
6.09391e-05
0.00551527
6.17195e-05
0.00551637
6.25723e-05
0.00551734
6.35015e-05
0.00551819
6.45115e-05
0.0055189
6.56067e-05
0.00551947
6.67918e-05
0.0055199
6.8072e-05
0.00552017
6.94525e-05
0.00552029
7.0939e-05
0.00552025
7.25376e-05
0.00552004
7.42545e-05
0.00551965
7.60966e-05
0.00551908
7.80709e-05
0.00551832
8.0185e-05
0.00551736
8.2447e-05
0.00551619
8.48651e-05
0.00551481
8.74484e-05
0.00551319
9.02063e-05
0.00551133
9.31487e-05
0.00550922
9.62863e-05
0.00550684
9.96299e-05
0.00550419
0.000103191
0.00550124
0.000106983
0.00549798
0.000111018
0.00549439
0.000115309
0.00549045
0.000119872
0.00548615
0.00012472
0.00548146
0.00012987
0.00547635
0.000135338
0.00547081
0.000141141
0.00546481
0.000147297
0.0054583
0.000153825
0.00545128
0.000160743
0.00544369
0.000168072
0.00543549
0.000175832
0.00542666
0.000184043
0.00541714
0.000192728
0.00540688
0.000201908
0.00539582
0.000211604
0.00538391
0.00022184
0.00537108
0.000232637
0.00535725
0.000244016
0.00534235
0.000255998
0.00532629
0.000268605
0.00530896
0.000281853
0.00529026
0.000295762
0.00527006
0.000310345
0.00524824
0.000325615
0.00522464
0.000341581
0.0051991
0.000358246
0.00517142
0.000375611
0.00514142
0.000393667
0.00510885
0.000412402
0.00507346
0.000431794
0.00503498
0.000451809
0.00499309
0.000472406
0.00494744
0.000493529
0.00489767
0.000515108
0.00484334
0.000537056
0.00478401
0.000559266
0.00471918
0.00058161
0.00464832
0.000603937
0.00457083
0.000626067
0.00448609
0.000647793
0.00439343
0.000668878
0.00429218
0.000689046
0.00418161
0.000707986
0.00406099
0.000725337
0.00392959
0.000740695
0.00378668
0.000753606
0.0036316
0.000763592
0.00346381
0.000770137
0.00328287
0.000772666
0.00308853
0.000770566
0.00288088
0.000763169
0.00266035
0.000749957
0.0024279
0.000730325
0.0021852
0.000703689
0.00193467
0.000669674
0.00167964
0.000628167
0.00142482
0.000579307
0.000523576
0.00117664
0.00500144
7.86104e-06
0.00500568
2.33028e-05
0.00501255
3.84554e-05
0.00502174
5.26818e-05
0.00503256
6.56473e-05
0.00504425
7.67958e-05
0.00505635
8.61128e-05
0.00506867
9.38468e-05
0.00508122
0.000100326
0.00509409
0.000105866
0.00510729
0.000110647
0.00512073
0.000114695
0.00513428
0.000117969
0.00514782
0.000120447
0.00516129
0.000122147
0.00517462
0.000123121
0.00518777
0.000123433
0.0052007
0.000123144
0.00521335
0.000122303
0.00522567
0.000120956
0.00523761
0.000119146
0.00524911
0.000116923
0.00526015
0.000114338
0.00527069
0.000111451
0.00528071
0.000108322
0.00529021
0.000105014
0.00529918
0.000101587
0.00530764
9.80991e-05
0.0053156
9.46056e-05
0.00532309
9.11549e-05
0.00533014
8.77896e-05
0.00533678
8.45452e-05
0.00534305
8.145e-05
0.005349
7.85252e-05
0.00535465
7.57855e-05
0.00536004
7.32397e-05
0.0053652
7.08911e-05
0.00537017
6.87388e-05
0.00537497
6.67778e-05
0.00537963
6.5e-05
0.00538416
6.33953e-05
0.00538859
6.19527e-05
0.00539293
6.06609e-05
0.00539719
5.95083e-05
0.00540138
5.84834e-05
0.00540551
5.75751e-05
0.00540958
5.67723e-05
0.00541361
5.60648e-05
0.00541759
5.54432e-05
0.00542153
5.48987e-05
0.00542543
5.44238e-05
0.00542928
5.40118e-05
0.00543309
5.3657e-05
0.00543686
5.33544e-05
0.00544058
5.30998e-05
0.00544426
5.28899e-05
0.00544789
5.27219e-05
0.00545148
5.25937e-05
0.00545501
5.25037e-05
0.0054585
5.24508e-05
0.00546193
5.24346e-05
0.00546531
5.24546e-05
0.00546863
5.25112e-05
0.0054719
5.26048e-05
0.0054751
5.27362e-05
0.00547825
5.29064e-05
0.00548134
5.31168e-05
0.00548436
5.33687e-05
0.00548732
5.3664e-05
0.00549021
5.40046e-05
0.00549303
5.43925e-05
0.00549578
5.48301e-05
0.00549846
5.53199e-05
0.00550106
5.58644e-05
0.00550359
5.64666e-05
0.00550605
5.71295e-05
0.00550842
5.78564e-05
0.00551071
5.86508e-05
0.00551291
5.95163e-05
0.00551502
6.04568e-05
0.00551705
6.14765e-05
0.00551898
6.25799e-05
0.00552082
6.37715e-05
0.00552255
6.50563e-05
0.00552418
6.64396e-05
0.00552571
6.79269e-05
0.00552712
6.95241e-05
0.00552842
7.12374e-05
0.00552961
7.30735e-05
0.00553066
7.50394e-05
0.00553159
7.71424e-05
0.00553239
7.93904e-05
0.00553304
8.17917e-05
0.00553355
8.43552e-05
0.00553391
8.709e-05
0.00553411
9.0006e-05
0.00553414
9.31137e-05
0.00553401
9.64239e-05
0.00553369
9.99482e-05
0.00553318
0.000103699
0.00553248
0.000107689
0.00553156
0.000111932
0.00553043
0.000116441
0.00552907
0.000121233
0.00552747
0.000126323
0.00552561
0.000131727
0.00552348
0.000137463
0.00552108
0.000143548
0.00551837
0.000150003
0.00551535
0.000156847
0.00551199
0.000164099
0.00550828
0.000171783
0.00550419
0.00017992
0.0054997
0.000188533
0.00549478
0.000197646
0.00548941
0.000207283
0.00548354
0.00021747
0.00547715
0.000228231
0.0054702
0.000239592
0.00546263
0.00025158
0.00545441
0.000264221
0.00544547
0.00027754
0.00543576
0.000291563
0.00542521
0.000306315
0.00541374
0.000321819
0.00540126
0.000338097
0.00538767
0.000355168
0.00537286
0.000373051
0.00535671
0.00039176
0.00533908
0.000411303
0.00531979
0.000431688
0.00529868
0.000452912
0.00527552
0.000474968
0.00525008
0.000497841
0.00522211
0.000521506
0.00519129
0.000545925
0.00515729
0.000571051
0.00511974
0.000596818
0.00507821
0.000623145
0.00503222
0.000649928
0.00498124
0.000677044
0.00492469
0.000704342
0.00486192
0.000731643
0.00479224
0.00075873
0.00471487
0.000785354
0.00462899