/*--------------------------------*- C++ -*----------------------------------*\
| =========                 |                                                 |
| \\      /  F ield         | OpenFOAM: The Open Source CFD Toolbox           |
|  \\    /   O peration     | Version:  2306                                  |
|   \\  /    A nd           | Website:  www.openfoam.com                      |
|    \\/     M anipulation  |                                                 |
\*---------------------------------------------------------------------------*/
FoamFile
{
    version     2.0;
    format      ascii;
    arch        "LSB;label=32;scalar=64";
    class       volVectorField;
    location    "0.375";
    object      U;
}
// * * * * * * * * * * * * * * * * * * * * * * * * * * * * * * * * * * * * * //

dimensions      [0 1 -1 0 0 0 0];

internalField   nonuniform List<vector> 
17600
(
(9.80708 0.0850068 0)
(9.62283 0.1805 0)
(9.41196 0.217949 0)
(9.14628 0.225578 0)
(8.83439 0.2251 0)
(8.49836 0.225385 0)
(8.15616 0.226736 0)
(7.81672 0.227129 0)
(7.48269 0.225219 0)
(7.15415 0.220818 0)
(6.83067 0.214448 0)
(6.51243 0.206753 0)
(6.20026 0.19816 0)
(5.89551 0.188852 0)
(5.59966 0.178847 0)
(5.31425 0.168129 0)
(5.04059 0.156697 0)
(4.78012 0.144613 0)
(4.53373 0.131894 0)
(4.3022 0.118628 0)
(4.0862 0.104998 0)
(3.88621 0.0912592 0)
(3.70252 0.0777049 0)
(3.53514 0.0646287 0)
(3.38384 0.0523003 0)
(3.24812 0.0409455 0)
(3.12727 0.0307339 0)
(3.02036 0.0217713 0)
(2.92635 0.0141005 0)
(2.84409 0.00770677 0)
(2.77239 0.00252974 0)
(2.71004 -0.00152478 0)
(2.65585 -0.00457072 0)
(2.60871 -0.00673263 0)
(2.56755 -0.00813305 0)
(2.53143 -0.00889384 0)
(2.49948 -0.00912459 0)
(2.47096 -0.00895615 0)
(2.44526 -0.0085097 0)
(2.42184 -0.00787914 0)
(2.40025 -0.00713357 0)
(2.38008 -0.0063242 0)
(2.36103 -0.00548941 0)
(2.34284 -0.00465777 0)
(2.3253 -0.0038499 0)
(2.30826 -0.00308024 0)
(2.29159 -0.0023584 0)
(2.27521 -0.00169037 0)
(2.25904 -0.00107931 0)
(2.24305 -0.000526171 0)
(2.22719 -3.01461e-05 0)
(2.21146 0.000410923 0)
(2.19583 0.000800188 0)
(2.18029 0.00114147 0)
(2.16486 0.00143897 0)
(2.14953 0.00169706 0)
(2.1343 0.0019201 0)
(2.11917 0.0021123 0)
(2.10414 0.00227768 0)
(2.08923 0.00241998 0)
(2.07442 0.00254265 0)
(2.05971 0.00264884 0)
(2.04512 0.00274137 0)
(2.03062 0.0028228 0)
(2.01622 0.00289536 0)
(2.00191 0.00296107 0)
(1.98768 0.00302167 0)
(1.97352 0.00307871 0)
(1.95943 0.00313352 0)
(1.94539 0.00318725 0)
(1.93139 0.00324084 0)
(1.91742 0.00329511 0)
(1.90346 0.00335073 0)
(1.88949 0.00340841 0)
(1.87551 0.0034688 0)
(1.86149 0.00353251 0)
(1.84741 0.00360009 0)
(1.83327 0.00367201 0)
(1.81903 0.0037487 0)
(1.80469 0.00383053 0)
(1.79021 0.00391785 0)
(1.77558 0.00401096 0)
(1.76078 0.00411014 0)
(1.74578 0.00421565 0)
(1.73056 0.00432772 0)
(1.71509 0.00444656 0)
(1.69935 0.00457236 0)
(1.68332 0.00470528 0)
(1.66697 0.00484544 0)
(1.65026 0.00499296 0)
(1.63318 0.00514789 0)
(1.61569 0.00531028 0)
(1.59776 0.00548008 0)
(1.57936 0.00565724 0)
(1.56046 0.00584161 0)
(1.54103 0.00603297 0)
(1.52103 0.006231 0)
(1.50043 0.00643531 0)
(1.4792 0.00664535 0)
(1.4573 0.00686044 0)
(1.4347 0.00707972 0)
(1.41136 0.00730215 0)
(1.38724 0.0075264 0)
(1.36231 0.00775094 0)
(1.33654 0.00797398 0)
(1.3099 0.0081941 0)
(1.28235 0.00840983 0)
(1.25386 0.00861935 0)
(1.2244 0.00882044 0)
(1.19396 0.00901054 0)
(1.1625 0.00918703 0)
(1.13001 0.00934692 0)
(1.09648 0.00948649 0)
(1.0619 0.00960159 0)
(1.02627 0.0096877 0)
(0.989598 0.00973997 0)
(0.951907 0.00975341 0)
(0.913219 0.00972293 0)
(0.873576 0.00964356 0)
(0.833027 0.0095106 0)
(0.791638 0.0093199 0)
(0.749487 0.00906817 0)
(0.706669 0.00875338 0)
(0.663294 0.00837518 0)
(0.619487 0.00793538 0)
(0.575391 0.0074385 0)
(0.531161 0.00689225 0)
(0.486967 0.0063079 0)
(0.442989 0.00570048 0)
(0.399417 0.00508856 0)
(0.356445 0.00449343 0)
(0.31427 0.00393736 0)
(0.273091 0.00344085 0)
(0.2331 0.00301893 0)
(0.194489 0.00267727 0)
(0.157444 0.0024083 0)
(0.122148 0.00218873 0)
(0.0887877 0.00197965 0)
(0.0575437 0.00173194 0)
(0.0285864 0.0013978 0)
(0.00206598 0.000950238 0)
(-0.0219067 0.000380794 0)
(-0.0433246 -0.000282857 0)
(-0.0622674 -0.000963666 0)
(-0.0788706 -0.00157273 0)
(-0.0932991 -0.00203606 0)
(-0.105692 -0.00232901 0)
(-0.116121 -0.00251096 0)
(-0.124558 -0.00268975 0)
(-0.131007 -0.00287448 0)
(-0.135586 -0.00299282 0)
(-0.138599 -0.00296227 0)
(-0.140396 -0.00282628 0)
(-0.141194 -0.0026923 0)
(-0.141047 -0.00261269 0)
(-0.140004 -0.00255483 0)
(-0.138229 -0.00245719 0)
(-0.135845 -0.00236969 0)
(-0.132732 -0.00242443 0)
(-0.128559 -0.00270056 0)
(10.0008 0.122279 0)
(10.0676 0.272137 0)
(10.1383 0.342321 0)
(10.1915 0.367553 0)
(10.2161 0.377243 0)
(10.2123 0.385769 0)
(10.1866 0.395783 0)
(10.1458 0.40522 0)
(10.094 0.411969 0)
(10.033 0.415277 0)
(9.96332 0.41546 0)
(9.88493 0.413208 0)
(9.79809 0.40907 0)
(9.70347 0.403325 0)
(9.60187 0.396017 0)
(9.49434 0.387102 0)
(9.38178 0.376511 0)
(9.26523 0.364236 0)
(9.14543 0.350294 0)
(9.02323 0.334784 0)
(8.89946 0.317889 0)
(8.77495 0.299859 0)
(8.65047 0.280992 0)
(8.52674 0.261606 0)
(8.40441 0.242029 0)
(8.28405 0.222584 0)
(8.16616 0.20357 0)
(8.05117 0.185255 0)
(7.93943 0.167862 0)
(7.8312 0.151568 0)
(7.72666 0.136491 0)
(7.62595 0.122705 0)
(7.52909 0.110234 0)
(7.43609 0.0990653 0)
(7.34686 0.089149 0)
(7.26132 0.0804192 0)
(7.17928 0.0727856 0)
(7.10057 0.0661692 0)
(7.02505 0.0604903 0)
(6.95256 0.05566 0)
(6.88291 0.0515809 0)
(6.81593 0.048153 0)
(6.75143 0.045279 0)
(6.68926 0.0428698 0)
(6.62924 0.0408464 0)
(6.57122 0.0391411 0)
(6.51506 0.0376963 0)
(6.46063 0.0364638 0)
(6.40781 0.0354035 0)
(6.35648 0.0344823 0)
(6.30656 0.0336731 0)
(6.25794 0.0329538 0)
(6.21054 0.0323071 0)
(6.16429 0.0317191 0)
(6.11912 0.0311791 0)
(6.07495 0.030679 0)
(6.03174 0.0302127 0)
(5.98942 0.0297759 0)
(5.94794 0.0293655 0)
(5.90725 0.0289794 0)
(5.86731 0.0286165 0)
(5.82807 0.028276 0)
(5.78949 0.0279581 0)
(5.75152 0.0276628 0)
(5.71412 0.0273908 0)
(5.67726 0.0271426 0)
(5.6409 0.0269193 0)
(5.605 0.0267217 0)
(5.56951 0.0265507 0)
(5.53441 0.0264076 0)
(5.49965 0.0262932 0)
(5.4652 0.0262087 0)
(5.43101 0.0261548 0)
(5.39706 0.0261326 0)
(5.3633 0.0261431 0)
(5.32969 0.0261873 0)
(5.29619 0.0262663 0)
(5.26277 0.0263813 0)
(5.22938 0.0265332 0)
(5.19598 0.0267234 0)
(5.16252 0.026953 0)
(5.12897 0.0272233 0)
(5.09527 0.0275357 0)
(5.06138 0.0278914 0)
(5.02726 0.028292 0)
(4.99284 0.028739 0)
(4.95809 0.0292338 0)
(4.92294 0.0297782 0)
(4.88734 0.0303738 0)
(4.85124 0.0310224 0)
(4.81457 0.0317257 0)
(4.77727 0.0324855 0)
(4.73929 0.0333037 0)
(4.70054 0.0341823 0)
(4.66097 0.0351231 0)
(4.6205 0.0361279 0)
(4.57905 0.0371988 0)
(4.53656 0.0383373 0)
(4.49293 0.0395454 0)
(4.44808 0.0408246 0)
(4.40192 0.0421763 0)
(4.35437 0.0436018 0)
(4.30533 0.045102 0)
(4.2547 0.0466776 0)
(4.20238 0.0483286 0)
(4.14826 0.0500542 0)
(4.09225 0.0518527 0)
(4.03422 0.0537214 0)
(3.97408 0.0556568 0)
(3.91169 0.0576546 0)
(3.84694 0.0597094 0)
(3.77973 0.0618147 0)
(3.70991 0.0639625 0)
(3.63739 0.0661434 0)
(3.56203 0.0683459 0)
(3.48374 0.0705564 0)
(3.40238 0.0727594 0)
(3.31787 0.0749367 0)
(3.23011 0.0770674 0)
(3.13901 0.0791279 0)
(3.0445 0.0810917 0)
(2.94654 0.0829295 0)
(2.84509 0.0846088 0)
(2.74015 0.0860947 0)
(2.63175 0.0873499 0)
(2.51995 0.0883351 0)
(2.40487 0.08901 0)
(2.28666 0.0893337 0)
(2.16557 0.0892663 0)
(2.04186 0.0887702 0)
(1.91592 0.0878112 0)
(1.78818 0.0863616 0)
(1.65919 0.0844019 0)
(1.52956 0.0819242 0)
(1.4 0.078934 0)
(1.27129 0.07545 0)
(1.14426 0.0715068 0)
(1.01978 0.0671589 0)
(0.898704 0.0624866 0)
(0.781862 0.0575953 0)
(0.669993 0.0526299 0)
(0.563751 0.0477426 0)
(0.463671 0.0430653 0)
(0.370164 0.0386938 0)
(0.283557 0.034624 0)
(0.204085 0.0307358 0)
(0.131832 0.026844 0)
(0.0667988 0.0228412 0)
(0.00913246 0.0187761 0)
(-0.0413347 0.0147733 0)
(-0.085 0.0111175 0)
(-0.122577 0.00803447 0)
(-0.154637 0.00557133 0)
(-0.181459 0.00340607 0)
(-0.2033 0.00136107 0)
(-0.22057 -0.000474029 0)
(-0.233869 -0.00194378 0)
(-0.243636 -0.00334193 0)
(-0.249959 -0.00510918 0)
(-0.252718 -0.00736033 0)
(10.0003 0.0614123 0)
(10.0359 0.160323 0)
(10.0898 0.227823 0)
(10.1516 0.268451 0)
(10.2101 0.293286 0)
(10.2592 0.312151 0)
(10.298 0.330013 0)
(10.3292 0.34748 0)
(10.3556 0.363366 0)
(10.3789 0.376572 0)
(10.3993 0.3867 0)
(10.4165 0.39393 0)
(10.4298 0.398644 0)
(10.4388 0.401151 0)
(10.4433 0.401595 0)
(10.4434 0.399983 0)
(10.4391 0.396276 0)
(10.4303 0.390452 0)
(10.4173 0.382572 0)
(10.4001 0.372765 0)
(10.3788 0.361217 0)
(10.3536 0.34816 0)
(10.3247 0.333864 0)
(10.2925 0.318628 0)
(10.2571 0.302762 0)
(10.2189 0.28658 0)
(10.1783 0.270385 0)
(10.1356 0.254453 0)
(10.0911 0.239023 0)
(10.0453 0.224294 0)
(9.99841 0.21041 0)
(9.95077 0.197473 0)
(9.90262 0.185535 0)
(9.85424 0.174613 0)
(9.80577 0.164686 0)
(9.75742 0.155715 0)
(9.70926 0.147641 0)
(9.66143 0.140409 0)
(9.614 0.133965 0)
(9.56702 0.128244 0)
(9.5205 0.123171 0)
(9.47445 0.118667 0)
(9.42886 0.114655 0)
(9.38374 0.111063 0)
(9.33907 0.107827 0)
(9.29486 0.104892 0)
(9.25107 0.102212 0)
(9.20771 0.0997466 0)
(9.16475 0.0974648 0)
(9.12218 0.0953395 0)
(9.07998 0.0933487 0)
(9.03814 0.0914744 0)
(8.99665 0.0897022 0)
(8.95549 0.0880206 0)
(8.91464 0.0864207 0)
(8.87411 0.0848957 0)
(8.83388 0.0834405 0)
(8.79393 0.0820512 0)
(8.75426 0.0807254 0)
(8.71486 0.0794612 0)
(8.67571 0.0782578 0)
(8.6368 0.0771146 0)
(8.59813 0.0760318 0)
(8.55967 0.0750097 0)
(8.52143 0.074049 0)
(8.48338 0.0731505 0)
(8.4455 0.0723154 0)
(8.40779 0.0715447 0)
(8.37023 0.0708399 0)
(8.33279 0.0702024 0)
(8.29547 0.0696337 0)
(8.25823 0.0691356 0)
(8.22106 0.0687098 0)
(8.18394 0.0683583 0)
(8.14684 0.0680829 0)
(8.10974 0.0678855 0)
(8.07261 0.0677683 0)
(8.03542 0.0677334 0)
(7.99813 0.067783 0)
(7.96073 0.0679195 0)
(7.92317 0.0681454 0)
(7.88542 0.0684635 0)
(7.84744 0.0688766 0)
(7.80919 0.0693879 0)
(7.77063 0.0700006 0)
(7.73171 0.0707181 0)
(7.69238 0.0715442 0)
(7.65261 0.0724828 0)
(7.61233 0.0735381 0)
(7.57148 0.0747144 0)
(7.53002 0.0760163 0)
(7.48788 0.0774487 0)
(7.44499 0.0790168 0)
(7.40129 0.0807259 0)
(7.3567 0.0825815 0)
(7.31115 0.0845895 0)
(7.26455 0.086756 0)
(7.21682 0.089087 0)
(7.16788 0.0915891 0)
(7.11763 0.0942687 0)
(7.06596 0.0971325 0)
(7.01277 0.100187 0)
(6.95795 0.103439 0)
(6.90139 0.106895 0)
(6.84296 0.110562 0)
(6.78254 0.114445 0)
(6.71997 0.118548 0)
(6.65513 0.122876 0)
(6.58786 0.127433 0)
(6.518 0.132221 0)
(6.44538 0.13724 0)
(6.36984 0.14249 0)
(6.2912 0.147967 0)
(6.20926 0.153668 0)
(6.12382 0.159584 0)
(6.03468 0.165706 0)
(5.94164 0.17202 0)
(5.84447 0.178508 0)
(5.74295 0.185148 0)
(5.63685 0.191912 0)
(5.52595 0.198768 0)
(5.41 0.205675 0)
(5.28878 0.212585 0)
(5.16207 0.219443 0)
(5.02963 0.226183 0)
(4.89127 0.23273 0)
(4.7468 0.238999 0)
(4.59604 0.24489 0)
(4.43887 0.250293 0)
(4.27518 0.255086 0)
(4.10494 0.25913 0)
(3.92817 0.262277 0)
(3.74497 0.264366 0)
(3.55555 0.265228 0)
(3.3602 0.264697 0)
(3.15937 0.262614 0)
(2.95366 0.258833 0)
(2.74386 0.25324 0)
(2.53095 0.245765 0)
(2.31617 0.236397 0)
(2.10099 0.225202 0)
(1.88715 0.212336 0)
(1.67665 0.198037 0)
(1.47165 0.182631 0)
(1.2744 0.166493 0)
(1.08707 0.150041 0)
(0.911534 0.133706 0)
(0.749158 0.117963 0)
(0.600661 0.103373 0)
(0.465858 0.090268 0)
(0.344382 0.0786152 0)
(0.235889 0.0679095 0)
(0.13999 0.057594 0)
(0.0565658 0.0475155 0)
(-0.0150473 0.0377732 0)
(-0.0759183 0.0288874 0)
(-0.12745 0.0211778 0)
(-0.170478 0.0142333 0)
(-0.205473 0.00728404 0)
(-0.232965 0.000101763 0)
(10.0002 0.0417813 0)
(10.0198 0.117276 0)
(10.0537 0.178916 0)
(10.0983 0.224503 0)
(10.1468 0.25657 0)
(10.1935 0.280049 0)
(10.2355 0.29931 0)
(10.2732 0.316686 0)
(10.3082 0.33256 0)
(10.3422 0.346429 0)
(10.376 0.357803 0)
(10.4096 0.366544 0)
(10.4428 0.372812 0)
(10.4748 0.376857 0)
(10.5055 0.378879 0)
(10.5345 0.378975 0)
(10.5616 0.377183 0)
(10.5867 0.373531 0)
(10.6096 0.368084 0)
(10.6301 0.360951 0)
(10.6482 0.352277 0)
(10.6636 0.342245 0)
(10.6764 0.331066 0)
(10.6863 0.318976 0)
(10.6935 0.306223 0)
(10.698 0.293062 0)
(10.6999 0.279739 0)
(10.6993 0.266485 0)
(10.6964 0.253506 0)
(10.6914 0.240975 0)
(10.6846 0.229032 0)
(10.6761 0.217782 0)
(10.6661 0.207294 0)
(10.6549 0.197605 0)
(10.6427 0.188731 0)
(10.6295 0.18066 0)
(10.6156 0.173369 0)
(10.6011 0.166811 0)
(10.586 0.160924 0)
(10.5705 0.155649 0)
(10.5546 0.150922 0)
(10.5383 0.146686 0)
(10.5217 0.142884 0)
(10.5047 0.139464 0)
(10.4876 0.136377 0)
(10.4701 0.133579 0)
(10.4524 0.131032 0)
(10.4344 0.128702 0)
(10.4162 0.126559 0)
(10.3978 0.124578 0)
(10.3791 0.122736 0)
(10.3602 0.121016 0)
(10.341 0.119402 0)
(10.3216 0.117882 0)
(10.302 0.116444 0)
(10.2821 0.115083 0)
(10.2619 0.11379 0)
(10.2415 0.112562 0)
(10.2209 0.111395 0)
(10.2 0.110288 0)
(10.1789 0.109238 0)
(10.1576 0.108245 0)
(10.136 0.107311 0)
(10.1141 0.106434 0)
(10.092 0.105617 0)
(10.0697 0.104862 0)
(10.0471 0.104169 0)
(10.0243 0.103542 0)
(10.0012 0.102983 0)
(9.97787 0.102493 0)
(9.95427 0.102077 0)
(9.93039 0.101738 0)
(9.90624 0.101478 0)
(9.88179 0.101301 0)
(9.85705 0.101212 0)
(9.83201 0.101213 0)
(9.80664 0.101309 0)
(9.78093 0.101504 0)
(9.75487 0.101802 0)
(9.72843 0.102208 0)
(9.70161 0.102726 0)
(9.67437 0.103361 0)
(9.6467 0.104118 0)
(9.61857 0.105004 0)
(9.58994 0.106023 0)
(9.5608 0.107182 0)
(9.5311 0.108487 0)
(9.50082 0.109945 0)
(9.46991 0.111564 0)
(9.43834 0.113349 0)
(9.40605 0.115311 0)
(9.37301 0.117456 0)
(9.33916 0.119794 0)
(9.30446 0.122333 0)
(9.26883 0.125083 0)
(9.23223 0.128055 0)
(9.19458 0.131258 0)
(9.15581 0.134704 0)
(9.11585 0.138403 0)
(9.07463 0.142368 0)
(9.03204 0.14661 0)
(8.98801 0.151142 0)
(8.94242 0.155976 0)
(8.89519 0.161126 0)
(8.8462 0.166604 0)
(8.79532 0.172424 0)
(8.74244 0.178597 0)
(8.68741 0.185138 0)
(8.63009 0.19206 0)
(8.57034 0.199373 0)
(8.50798 0.20709 0)
(8.44284 0.215219 0)
(8.37474 0.22377 0)
(8.30348 0.232749 0)
(8.22886 0.242161 0)
(8.15064 0.252009 0)
(8.0686 0.26229 0)
(7.98248 0.273001 0)
(7.89203 0.284133 0)
(7.79695 0.295671 0)
(7.69697 0.307595 0)
(7.59176 0.319878 0)
(7.48101 0.332484 0)
(7.36437 0.34537 0)
(7.2415 0.358479 0)
(7.11201 0.371745 0)
(6.97554 0.385088 0)
(6.8317 0.39841 0)
(6.68008 0.411602 0)
(6.5203 0.424531 0)
(6.35196 0.437047 0)
(6.17468 0.448978 0)
(5.98808 0.460129 0)
(5.79185 0.47028 0)
(5.58568 0.479179 0)
(5.36934 0.486554 0)
(5.14267 0.492108 0)
(4.90561 0.495529 0)
(4.65823 0.496487 0)
(4.40078 0.494646 0)
(4.13369 0.489667 0)
(3.85767 0.481222 0)
(3.57375 0.469016 0)
(3.28331 0.452826 0)
(2.98818 0.432545 0)
(2.69071 0.40823 0)
(2.39386 0.380171 0)
(2.10113 0.348926 0)
(1.81661 0.315347 0)
(1.54465 0.280608 0)
(1.28961 0.246045 0)
(1.05535 0.212987 0)
(0.844483 0.182459 0)
(0.658031 0.155469 0)
(0.494563 0.13235 0)
(0.351832 0.112483 0)
(0.227567 0.0942954 0)
(0.120859 0.0766483 0)
(0.0305016 0.0589734 0)
(-0.0453562 0.041678 0)
(10.0001 0.0316628 0)
(10.0128 0.0917414 0)
(10.036 0.145038 0)
(10.0682 0.188699 0)
(10.1059 0.222283 0)
(10.1451 0.24772 0)
(10.1829 0.267815 0)
(10.2183 0.28487 0)
(10.2517 0.299983 0)
(10.2843 0.313285 0)
(10.3168 0.32452 0)
(10.3498 0.333476 0)
(10.383 0.340137 0)
(10.4162 0.344639 0)
(10.449 0.347161 0)
(10.4811 0.347851 0)
(10.5124 0.346814 0)
(10.5427 0.344127 0)
(10.5719 0.339868 0)
(10.5998 0.334136 0)
(10.6264 0.327061 0)
(10.6514 0.318797 0)
(10.6746 0.309521 0)
(10.6961 0.29943 0)
(10.7157 0.288731 0)
(10.7334 0.277634 0)
(10.7492 0.266346 0)
(10.7632 0.255061 0)
(10.7754 0.243955 0)
(10.7859 0.233178 0)
(10.7948 0.222855 0)
(10.8024 0.213084 0)
(10.8087 0.203933 0)
(10.8139 0.195445 0)
(10.8182 0.187643 0)
(10.8216 0.180526 0)
(10.8242 0.174076 0)
(10.8263 0.168259 0)
(10.8278 0.163027 0)
(10.8289 0.158334 0)
(10.8295 0.15413 0)
(10.8297 0.15037 0)
(10.8295 0.147011 0)
(10.8291 0.144011 0)
(10.8283 0.14133 0)
(10.8273 0.13893 0)
(10.8259 0.136775 0)
(10.8243 0.134835 0)
(10.8224 0.13308 0)
(10.8203 0.131487 0)
(10.8178 0.130033 0)
(10.8151 0.128702 0)
(10.8121 0.127477 0)
(10.8088 0.126346 0)
(10.8051 0.125298 0)
(10.8012 0.124326 0)
(10.797 0.123422 0)
(10.7925 0.122583 0)
(10.7877 0.121804 0)
(10.7825 0.121083 0)
(10.777 0.120419 0)
(10.7712 0.119812 0)
(10.7651 0.119262 0)
(10.7586 0.11877 0)
(10.7518 0.118338 0)
(10.7447 0.117967 0)
(10.7372 0.11766 0)
(10.7294 0.117419 0)
(10.7212 0.117248 0)
(10.7127 0.117151 0)
(10.7039 0.117129 0)
(10.6946 0.117189 0)
(10.685 0.117332 0)
(10.6751 0.117565 0)
(10.6647 0.117892 0)
(10.654 0.118317 0)
(10.6429 0.118846 0)
(10.6313 0.119483 0)
(10.6194 0.120235 0)
(10.607 0.121108 0)
(10.5941 0.122107 0)
(10.5808 0.12324 0)
(10.5671 0.124513 0)
(10.5528 0.125934 0)
(10.538 0.12751 0)
(10.5227 0.129249 0)
(10.5069 0.131161 0)
(10.4904 0.133253 0)
(10.4734 0.135536 0)
(10.4557 0.13802 0)
(10.4373 0.140715 0)
(10.4183 0.143633 0)
(10.3985 0.146785 0)
(10.3779 0.150184 0)
(10.3565 0.153842 0)
(10.3343 0.157774 0)
(10.3111 0.161993 0)
(10.287 0.166515 0)
(10.2618 0.171355 0)
(10.2356 0.17653 0)
(10.2082 0.182056 0)
(10.1797 0.187952 0)
(10.1498 0.194235 0)
(10.1185 0.200924 0)
(10.0858 0.208039 0)
(10.0515 0.2156 0)
(10.0156 0.223628 0)
(9.97792 0.232143 0)
(9.93836 0.241166 0)
(9.89679 0.250718 0)
(9.85308 0.260821 0)
(9.80709 0.271496 0)
(9.75866 0.282761 0)
(9.70763 0.294637 0)
(9.6538 0.307142 0)
(9.597 0.320292 0)
(9.53701 0.334101 0)
(9.4736 0.348581 0)
(9.40654 0.36374 0)
(9.33556 0.379583 0)
(9.26038 0.396107 0)
(9.18071 0.413307 0)
(9.09622 0.431169 0)
(9.00656 0.44967 0)
(8.91136 0.468779 0)
(8.81023 0.488454 0)
(8.70274 0.508637 0)
(8.58844 0.52926 0)
(8.46684 0.550235 0)
(8.33744 0.571455 0)
(8.19969 0.592794 0)
(8.05303 0.614099 0)
(7.89685 0.635194 0)
(7.73055 0.655869 0)
(7.55348 0.675883 0)
(7.36498 0.694954 0)
(7.16439 0.712768 0)
(6.95108 0.728975 0)
(6.72441 0.743185 0)
(6.48381 0.754976 0)
(6.22875 0.763888 0)
(5.95884 0.769433 0)
(5.67384 0.77109 0)
(5.3737 0.768304 0)
(5.05862 0.760515 0)
(4.72913 0.747174 0)
(4.3862 0.727763 0)
(4.0313 0.701833 0)
(3.66655 0.669057 0)
(3.29482 0.629348 0)
(2.9199 0.582959 0)
(2.54676 0.53063 0)
(2.18159 0.473736 0)
(1.83175 0.414339 0)
(1.50498 0.355208 0)
(1.20837 0.29938 0)
(0.9469 0.249269 0)
(0.722367 0.206445 0)
(0.531877 0.170768 0)
(0.369975 0.140055 0)
(10.0001 0.0253328 0)
(10.0092 0.0742934 0)
(10.0261 0.11944 0)
(10.0502 0.158589 0)
(10.0797 0.190697 0)
(10.1121 0.216193 0)
(10.1451 0.236532 0)
(10.1773 0.253356 0)
(10.2083 0.267848 0)
(10.2386 0.280504 0)
(10.2688 0.291334 0)
(10.2993 0.30019 0)
(10.3301 0.306985 0)
(10.3611 0.311759 0)
(10.3921 0.314641 0)
(10.4226 0.315784 0)
(10.4527 0.315323 0)
(10.482 0.313366 0)
(10.5106 0.310007 0)
(10.5382 0.305343 0)
(10.5649 0.299488 0)
(10.5905 0.292574 0)
(10.6148 0.284754 0)
(10.6378 0.276194 0)
(10.6594 0.26707 0)
(10.6795 0.257563 0)
(10.6982 0.247847 0)
(10.7155 0.23809 0)
(10.7314 0.228442 0)
(10.746 0.219038 0)
(10.7594 0.209987 0)
(10.7716 0.20138 0)
(10.7829 0.193282 0)
(10.7933 0.185738 0)
(10.8029 0.17877 0)
(10.8119 0.172384 0)
(10.8202 0.16657 0)
(10.8281 0.161304 0)
(10.8356 0.156554 0)
(10.8426 0.152285 0)
(10.8494 0.148459 0)
(10.8559 0.145041 0)
(10.8621 0.141995 0)
(10.8682 0.139285 0)
(10.874 0.136878 0)
(10.8796 0.134741 0)
(10.8851 0.132842 0)
(10.8904 0.131152 0)
(10.8955 0.129645 0)
(10.9005 0.1283 0)
(10.9053 0.127095 0)
(10.9099 0.126015 0)
(10.9143 0.125044 0)
(10.9185 0.124171 0)
(10.9226 0.123385 0)
(10.9264 0.122679 0)
(10.9301 0.122047 0)
(10.9335 0.121484 0)
(10.9367 0.120985 0)
(10.9397 0.12055 0)
(10.9425 0.120177 0)
(10.945 0.119865 0)
(10.9473 0.119615 0)
(10.9493 0.119429 0)
(10.9511 0.119306 0)
(10.9527 0.11925 0)
(10.954 0.119263 0)
(10.955 0.119348 0)
(10.9557 0.119509 0)
(10.9562 0.119748 0)
(10.9564 0.120071 0)
(10.9563 0.12048 0)
(10.9559 0.120982 0)
(10.9553 0.121579 0)
(10.9543 0.122278 0)
(10.953 0.123084 0)
(10.9514 0.124003 0)
(10.9495 0.12504 0)
(10.9472 0.126203 0)
(10.9446 0.127497 0)
(10.9416 0.128931 0)
(10.9383 0.130511 0)
(10.9346 0.132246 0)
(10.9305 0.134144 0)
(10.9259 0.136214 0)
(10.921 0.138466 0)
(10.9156 0.14091 0)
(10.9098 0.143556 0)
(10.9035 0.146416 0)
(10.8967 0.149501 0)
(10.8894 0.152824 0)
(10.8816 0.156399 0)
(10.8732 0.160238 0)
(10.8642 0.164358 0)
(10.8546 0.168773 0)
(10.8443 0.1735 0)
(10.8334 0.178557 0)
(10.8217 0.18396 0)
(10.8093 0.18973 0)
(10.796 0.195886 0)
(10.782 0.20245 0)
(10.767 0.209443 0)
(10.7511 0.216887 0)
(10.7342 0.224808 0)
(10.7162 0.23323 0)
(10.6971 0.242178 0)
(10.6768 0.251679 0)
(10.6552 0.261761 0)
(10.6322 0.272453 0)
(10.6078 0.283782 0)
(10.5818 0.29578 0)
(10.5542 0.308476 0)
(10.5249 0.321901 0)
(10.4936 0.336084 0)
(10.4603 0.351056 0)
(10.4248 0.366846 0)
(10.387 0.383482 0)
(10.3468 0.400992 0)
(10.3038 0.419399 0)
(10.2579 0.438726 0)
(10.2089 0.45899 0)
(10.1566 0.480208 0)
(10.1006 0.502386 0)
(10.0407 0.525527 0)
(9.97655 0.549626 0)
(9.90784 0.574667 0)
(9.83418 0.600626 0)
(9.75516 0.627462 0)
(9.67032 0.655122 0)
(9.57918 0.683533 0)
(9.48121 0.712605 0)
(9.37583 0.742223 0)
(9.26241 0.772245 0)
(9.14028 0.802504 0)
(9.00871 0.832801 0)
(8.8669 0.862904 0)
(8.71403 0.892543 0)
(8.54921 0.921409 0)
(8.37151 0.949148 0)
(8.17995 0.975365 0)
(7.97354 0.999613 0)
(7.75126 1.0214 0)
(7.51209 1.04016 0)
(7.25504 1.05528 0)
(6.97919 1.06606 0)
(6.68373 1.07176 0)
(6.36802 1.0716 0)
(6.03164 1.06474 0)
(5.67454 1.05038 0)
(5.2971 1.02769 0)
(4.90029 0.995945 0)
(4.48586 0.954529 0)
(4.05654 0.902999 0)
(3.61622 0.841198 0)
(3.17016 0.769498 0)
(2.72536 0.689077 0)
(2.29089 0.60227 0)
(1.87802 0.512715 0)
(1.49891 0.425374 0)
(1.16405 0.345572 0)
(10.0001 0.0208371 0)
(10.007 0.0615063 0)
(10.02 0.0997295 0)
(10.0387 0.134104 0)
(10.0623 0.163618 0)
(10.0892 0.188088 0)
(10.1177 0.208101 0)
(10.1466 0.224643 0)
(10.1751 0.238663 0)
(10.2033 0.250752 0)
(10.2314 0.261112 0)
(10.2596 0.269717 0)
(10.2882 0.276494 0)
(10.317 0.281435 0)
(10.3459 0.284616 0)
(10.3745 0.286165 0)
(10.4028 0.286217 0)
(10.4305 0.284893 0)
(10.4575 0.282297 0)
(10.4839 0.278527 0)
(10.5093 0.273687 0)
(10.5339 0.267893 0)
(10.5574 0.261277 0)
(10.5798 0.253982 0)
(10.6011 0.246158 0)
(10.6211 0.237959 0)
(10.64 0.229538 0)
(10.6576 0.221036 0)
(10.6741 0.212587 0)
(10.6895 0.204307 0)
(10.7038 0.196296 0)
(10.7172 0.188635 0)
(10.7298 0.181387 0)
(10.7415 0.174595 0)
(10.7526 0.168284 0)
(10.7631 0.162466 0)
(10.7731 0.157138 0)
(10.7827 0.152285 0)
(10.7918 0.147888 0)
(10.8007 0.14392 0)
(10.8093 0.140355 0)
(10.8177 0.137163 0)
(10.8259 0.134314 0)
(10.8339 0.131779 0)
(10.8417 0.129529 0)
(10.8495 0.127535 0)
(10.8571 0.125769 0)
(10.8646 0.124207 0)
(10.872 0.122824 0)
(10.8793 0.121602 0)
(10.8865 0.120521 0)
(10.8935 0.119567 0)
(10.9005 0.118726 0)
(10.9074 0.117987 0)
(10.9141 0.117341 0)
(10.9208 0.11678 0)
(10.9273 0.116298 0)
(10.9336 0.115891 0)
(10.9399 0.115555 0)
(10.946 0.115288 0)
(10.9519 0.115089 0)
(10.9577 0.114957 0)
(10.9634 0.114894 0)
(10.9689 0.114899 0)
(10.9742 0.114974 0)
(10.9794 0.115121 0)
(10.9844 0.115344 0)
(10.9892 0.115644 0)
(10.9939 0.116026 0)
(10.9983 0.116492 0)
(11.0026 0.117048 0)
(11.0067 0.117697 0)
(11.0106 0.118444 0)
(11.0142 0.119294 0)
(11.0177 0.120253 0)
(11.0209 0.121326 0)
(11.024 0.122519 0)
(11.0268 0.123839 0)
(11.0294 0.125293 0)
(11.0317 0.126888 0)
(11.0338 0.128631 0)
(11.0356 0.130532 0)
(11.0371 0.132599 0)
(11.0384 0.13484 0)
(11.0394 0.137267 0)
(11.0401 0.139888 0)
(11.0405 0.142716 0)
(11.0406 0.145761 0)
(11.0404 0.149037 0)
(11.0398 0.152555 0)
(11.0388 0.15633 0)
(11.0375 0.160377 0)
(11.0358 0.16471 0)
(11.0336 0.169347 0)
(11.0311 0.174304 0)
(11.0281 0.179599 0)
(11.0246 0.185252 0)
(11.0206 0.191283 0)
(11.0162 0.197714 0)
(11.0111 0.204566 0)
(11.0055 0.211863 0)
(10.9993 0.21963 0)
(10.9925 0.227894 0)
(10.985 0.23668 0)
(10.9768 0.246019 0)
(10.9678 0.255939 0)
(10.958 0.266472 0)
(10.9474 0.27765 0)
(10.9358 0.289508 0)
(10.9233 0.302078 0)
(10.9098 0.315399 0)
(10.8952 0.329506 0)
(10.8795 0.344438 0)
(10.8625 0.360233 0)
(10.8441 0.37693 0)
(10.8244 0.394569 0)
(10.8031 0.413189 0)
(10.7802 0.43283 0)
(10.7555 0.45353 0)
(10.7288 0.475325 0)
(10.7002 0.498252 0)
(10.6693 0.522342 0)
(10.6359 0.547625 0)
(10.6 0.574127 0)
(10.5611 0.601865 0)
(10.5192 0.630854 0)
(10.4739 0.661097 0)
(10.4248 0.692589 0)
(10.3717 0.725312 0)
(10.3141 0.759235 0)
(10.2517 0.794309 0)
(10.1839 0.830468 0)
(10.1101 0.867623 0)
(10.0299 0.905662 0)
(9.94259 0.944446 0)
(9.84738 0.983805 0)
(9.7435 1.02354 0)
(9.63009 1.06339 0)
(9.5062 1.10309 0)
(9.37078 1.14229 0)
(9.22273 1.18061 0)
(9.06083 1.21759 0)
(8.8838 1.25273 0)
(8.69028 1.28545 0)
(8.47884 1.31509 0)
(8.24803 1.34094 0)
(7.99637 1.36219 0)
(7.72242 1.37797 0)
(7.42478 1.38732 0)
(7.1022 1.38922 0)
(6.75365 1.38255 0)
(6.37843 1.36616 0)
(5.97634 1.33888 0)
(5.54784 1.29956 0)
(5.09419 1.24718 0)
(4.6179 1.18098 0)
(4.12296 1.10061 0)
(3.61523 1.00626 0)
(3.10277 0.899005 0)
(2.59638 0.781401 0)
(10.0001 0.0174421 0)
(10.0056 0.0516771 0)
(10.016 0.0842465 0)
(10.0311 0.11422 0)
(10.0503 0.140791 0)
(10.0729 0.163586 0)
(10.0976 0.182741 0)
(10.1233 0.198762 0)
(10.1494 0.212285 0)
(10.1755 0.223832 0)
(10.2017 0.23369 0)
(10.2281 0.241936 0)
(10.2547 0.248551 0)
(10.2816 0.253525 0)
(10.3085 0.2569 0)
(10.3354 0.258766 0)
(10.3621 0.259244 0)
(10.3883 0.258449 0)
(10.4139 0.25649 0)
(10.4389 0.253466 0)
(10.4632 0.249474 0)
(10.4867 0.244619 0)
(10.5093 0.239016 0)
(10.5309 0.232788 0)
(10.5516 0.226065 0)
(10.5712 0.218981 0)
(10.5897 0.211665 0)
(10.6072 0.204243 0)
(10.6236 0.196829 0)
(10.6391 0.189526 0)
(10.6537 0.182424 0)
(10.6673 0.175595 0)
(10.6803 0.169097 0)
(10.6924 0.162973 0)
(10.704 0.157251 0)
(10.715 0.151944 0)
(10.7255 0.147056 0)
(10.7356 0.142581 0)
(10.7454 0.138506 0)
(10.7548 0.134815 0)
(10.764 0.131486 0)
(10.7729 0.128495 0)
(10.7816 0.125819 0)
(10.7902 0.123433 0)
(10.7986 0.121312 0)
(10.807 0.11943 0)
(10.8151 0.117766 0)
(10.8232 0.116297 0)
(10.8312 0.115002 0)
(10.8392 0.113864 0)
(10.847 0.112867 0)
(10.8547 0.111996 0)
(10.8624 0.11124 0)
(10.87 0.110588 0)
(10.8775 0.110033 0)
(10.8849 0.109566 0)
(10.8922 0.109182 0)
(10.8994 0.108878 0)
(10.9065 0.108648 0)
(10.9135 0.108493 0)
(10.9204 0.108409 0)
(10.9273 0.108397 0)
(10.934 0.108458 0)
(10.9405 0.108591 0)
(10.947 0.108798 0)
(10.9534 0.109083 0)
(10.9596 0.109446 0)
(10.9657 0.109891 0)
(10.9717 0.110422 0)
(10.9775 0.111042 0)
(10.9833 0.111755 0)
(10.9888 0.112566 0)
(10.9943 0.11348 0)
(10.9996 0.114502 0)
(11.0047 0.115637 0)
(11.0097 0.116892 0)
(11.0145 0.118272 0)
(11.0192 0.119786 0)
(11.0236 0.121439 0)
(11.028 0.123239 0)
(11.0321 0.125196 0)
(11.0361 0.127316 0)
(11.0398 0.129611 0)
(11.0434 0.132088 0)
(11.0468 0.134759 0)
(11.0499 0.137634 0)
(11.0529 0.140725 0)
(11.0556 0.144045 0)
(11.0581 0.147606 0)
(11.0603 0.151421 0)
(11.0623 0.155506 0)
(11.064 0.159876 0)
(11.0655 0.164546 0)
(11.0666 0.169535 0)
(11.0675 0.174861 0)
(11.0681 0.180542 0)
(11.0683 0.1866 0)
(11.0682 0.193055 0)
(11.0678 0.19993 0)
(11.0669 0.20725 0)
(11.0657 0.215039 0)
(11.0641 0.223324 0)
(11.0621 0.232132 0)
(11.0596 0.241494 0)
(11.0566 0.251439 0)
(11.0532 0.262 0)
(11.0492 0.273211 0)
(11.0447 0.285108 0)
(11.0396 0.297726 0)
(11.0339 0.311105 0)
(11.0275 0.325283 0)
(11.0204 0.340304 0)
(11.0126 0.356209 0)
(11.0041 0.373042 0)
(10.9947 0.390849 0)
(10.9844 0.409676 0)
(10.9732 0.429569 0)
(10.961 0.450578 0)
(10.9476 0.472749 0)
(10.9331 0.49613 0)
(10.9174 0.52077 0)
(10.9003 0.546713 0)
(10.8817 0.574006 0)
(10.8614 0.602691 0)
(10.8395 0.632807 0)
(10.8155 0.664388 0)
(10.7895 0.697466 0)
(10.7612 0.732061 0)
(10.7303 0.76819 0)
(10.6966 0.805857 0)
(10.6598 0.845055 0)
(10.6195 0.885763 0)
(10.5753 0.927945 0)
(10.5268 0.971544 0)
(10.4736 1.01649 0)
(10.4149 1.06267 0)
(10.3503 1.10996 0)
(10.2789 1.15819 0)
(10.2001 1.20717 0)
(10.1128 1.25665 0)
(10.0161 1.30633 0)
(9.90891 1.35585 0)
(9.78995 1.40481 0)
(9.65788 1.45273 0)
(9.51126 1.49906 0)
(9.34846 1.54315 0)
(9.16779 1.58427 0)
(8.96741 1.6216 0)
(8.74541 1.65421 0)
(8.49981 1.68107 0)
(8.2286 1.70103 0)
(7.9298 1.71285 0)
(7.60156 1.71517 0)
(7.24222 1.70654 0)
(6.85044 1.68544 0)
(6.42545 1.65028 0)
(5.96725 1.59954 0)
(5.47687 1.53177 0)
(4.95668 1.44584 0)
(4.41101 1.34117 0)
(10 0.0147647 0)
(10.0046 0.0438388 0)
(10.0132 0.0717491 0)
(10.0257 0.0978091 0)
(10.0419 0.121428 0)
(10.0611 0.142215 0)
(10.0826 0.160097 0)
(10.1056 0.175288 0)
(10.1293 0.188167 0)
(10.1535 0.199121 0)
(10.1779 0.208432 0)
(10.2025 0.216235 0)
(10.2274 0.22257 0)
(10.2526 0.227445 0)
(10.278 0.230886 0)
(10.3033 0.23296 0)
(10.3285 0.233761 0)
(10.3533 0.233392 0)
(10.3778 0.231958 0)
(10.4016 0.229554 0)
(10.4249 0.226275 0)
(10.4474 0.222217 0)
(10.4692 0.21748 0)
(10.4901 0.212172 0)
(10.5102 0.206407 0)
(10.5293 0.200297 0)
(10.5475 0.193957 0)
(10.5648 0.187493 0)
(10.5812 0.181006 0)
(10.5966 0.174587 0)
(10.6112 0.168313 0)
(10.6251 0.162251 0)
(10.6382 0.156454 0)
(10.6506 0.150963 0)
(10.6624 0.145805 0)
(10.6737 0.140998 0)
(10.6846 0.136549 0)
(10.695 0.132457 0)
(10.705 0.128717 0)
(10.7147 0.125315 0)
(10.7241 0.122237 0)
(10.7333 0.119464 0)
(10.7423 0.116976 0)
(10.7511 0.114752 0)
(10.7598 0.112773 0)
(10.7683 0.111016 0)
(10.7767 0.109463 0)
(10.7849 0.108094 0)
(10.7931 0.106893 0)
(10.8012 0.105843 0)
(10.8092 0.10493 0)
(10.8171 0.104141 0)
(10.8249 0.103467 0)
(10.8327 0.102897 0)
(10.8403 0.102424 0)
(10.8479 0.102041 0)
(10.8554 0.101743 0)
(10.8628 0.101526 0)
(10.8701 0.101386 0)
(10.8774 0.101323 0)
(10.8845 0.101334 0)
(10.8916 0.10142 0)
(10.8985 0.10158 0)
(10.9054 0.101815 0)
(10.9122 0.102128 0)
(10.9188 0.10252 0)
(10.9254 0.102993 0)
(10.9319 0.103552 0)
(10.9382 0.104198 0)
(10.9445 0.104937 0)
(10.9506 0.105771 0)
(10.9566 0.106706 0)
(10.9625 0.107748 0)
(10.9683 0.1089 0)
(10.974 0.110169 0)
(10.9795 0.111561 0)
(10.9849 0.113083 0)
(10.9902 0.114741 0)
(10.9954 0.116544 0)
(11.0004 0.118499 0)
(11.0052 0.120614 0)
(11.01 0.122898 0)
(11.0145 0.125361 0)
(11.0189 0.128013 0)
(11.0232 0.130865 0)
(11.0273 0.133927 0)
(11.0312 0.137212 0)
(11.035 0.140732 0)
(11.0385 0.1445 0)
(11.0419 0.148532 0)