/*--------------------------------*- C++ -*----------------------------------*\
| =========                 |                                                 |
| \\      /  F ield         | OpenFOAM: The Open Source CFD Toolbox           |
|  \\    /   O peration     | Version:  2306                                  |
|   \\  /    A nd           | Website:  www.openfoam.com                      |
|    \\/     M anipulation  |                                                 |
\*---------------------------------------------------------------------------*/
FoamFile
{
    version     2.0;
    format      ascii;
    arch        "LSB;label=32;scalar=64";
    class       volScalarField;
    location    "0.25";
    object      p;
}
// * * * * * * * * * * * * * * * * * * * * * * * * * * * * * * * * * * * * * //

dimensions      [0 2 -2 0 0 0 0];

internalField   nonuniform List<scalar> 
4400
(
572.91
571.895
570.988
570.316
569.866
569.559
569.315
569.086
568.853
568.612
568.366
568.119
567.872
567.626
567.382
567.139
566.895
566.652
566.408
566.164
565.919
565.675
565.431
565.188
564.945
564.705
564.466
564.23
563.996
563.767
563.541
563.32
563.104
562.894
562.691
562.494
562.306
562.126
561.955
561.795
561.645
561.506
561.378
561.263
561.16
561.07
560.994
560.93
560.879
560.84
560.813
560.796
560.788
560.786
560.787
560.787
560.782
560.764
560.73
560.67
560.58
560.453
560.29
560.102
559.942
559.846
559.895
560.16
560.678
561.414
562.289
563.019
563.331
563.161
563.056
562.96
563.324
563.468
563.18
562.913
571.448
571.106
570.674
570.232
569.841
569.516
569.248
569.013
568.789
568.564
568.333
568.097
567.856
567.613
567.37
567.127
566.884
566.642
566.399
566.156
565.913
565.67
565.427
565.184
564.943
564.703
564.464
564.229
563.996
563.766
563.541
563.319
563.103
562.893
562.689
562.492
562.303
562.122
561.949
561.787
561.634
561.493
561.362
561.244
561.137
561.044
560.963
560.895
560.84
560.797
560.766
560.744
560.731
560.724
560.722
560.717
560.709
560.69
560.654
560.594
560.504
560.38
560.222
560.043
559.878
559.79
559.858
560.172
560.782
561.69
562.788
563.746
563.85
563.094
562.616
562.333
562.503
563.12
563.296
563.054
570.902
570.737
570.48
570.162
569.828
569.513
569.232
568.982
568.753
568.532
568.308
568.079
567.844
567.605
567.363
567.12
566.878
566.635
566.393
566.151
565.909
565.667
565.424
565.183
564.941
564.702
564.464
564.228
563.995
563.765
563.539
563.317
563.1
562.888
562.682
562.482
562.29
562.105
561.929
561.761
561.603
561.454
561.315
561.187
561.07
560.964
560.868
560.785
560.711
560.65
560.596
560.554
560.515
560.485
560.454
560.425
560.39
560.347
560.291
560.218
560.126
560.015
559.893
559.774
559.697
559.717
559.889
560.247
560.802
561.527
562.308
562.897
563.116
562.975
563.01
563.215
563.704
564.568
564
562.82
570.487
570.387
570.214
569.981
569.715
569.443
569.18
568.935
568.705
568.484
568.265
568.042
567.815
567.581
567.344
567.104
566.864
566.623
566.382
566.14
565.899
565.658
565.417
565.176
564.935
564.696
564.458
564.222
563.989
563.759
563.531
563.308
563.089
562.875
562.666
562.463
562.266
562.076
561.893
561.718
561.552
561.392
561.243
561.102
560.971
560.849
560.736
560.633
560.539
560.453
560.375
560.303
560.236
560.173
560.11
560.047
559.978
559.904
559.82
559.726
559.624
559.516
559.415
559.334
559.308
559.359
559.524
559.806
560.211
560.71
561.251
561.739
562.109
562.361
562.531
562.679
562.808
562.958
563.002
563.158
570.187
570.119
569.994
569.82
569.608
569.375
569.137
568.903
568.675
568.455
568.236
568.016
567.793
567.564
567.331
567.094
566.855
566.615
566.375
566.133
565.893
565.651
565.411
565.17
564.93
564.69
564.452
564.215
563.981
563.749
563.52
563.295
563.073
562.857
562.643
562.437
562.234
562.039
561.849
561.666
561.49
561.321
561.161
561.006
560.861
560.721
560.593
560.468
560.353
560.241
560.138
560.035
559.939
559.842
559.745
559.646
559.542
559.434
559.317
559.198
559.073
558.955
558.845
558.764
558.722
558.741
558.832
559.003
559.261
559.581
559.965
560.339
560.71
560.977
561.203
561.335
561.528
561.793
562.157
562.378
569.969
569.917
569.821
569.682
569.507
569.307
569.091
568.87
568.648
568.429
568.211
567.992
567.771
567.545
567.315
567.081
566.844
566.606
566.366
566.125
565.885
565.643
565.403
565.161
564.921
564.681
564.442
564.204
563.969
563.735
563.504
563.277
563.052
562.832
562.614
562.403
562.195
561.994
561.796
561.606
561.42
561.241
561.068
560.901
560.742
560.586
560.439
560.294
560.157
560.022
559.891
559.762
559.634
559.506
559.374
559.242
559.101
558.96
558.809
558.66
558.503
558.359
558.217
558.103
558.013
557.966
557.968
558.022
558.149
558.307
558.544
558.761
559.025
559.21
559.412
559.56
559.779
560.036
560.293
560.419
569.81
569.768
569.687
569.57
569.42
569.243
569.046
568.838
568.624
568.408
568.191
567.972
567.751
567.528
567.3
567.068
566.833
566.596
566.357
566.117
565.876
565.634
565.393
565.151
564.91
564.669
564.429
564.19
563.954
563.717
563.485
563.253
563.027
562.801
562.581
562.363
562.151
561.941
561.738
561.539
561.343
561.155
560.968
560.791
560.615
560.445
560.278
560.116
559.955
559.799
559.642
559.486
559.329
559.17
559.005
558.841
558.665
558.489
558.303
558.117
557.925
557.739
557.557
557.384
557.237
557.102
557.016
556.949
556.942
556.956
557.023
557.097
557.193
557.287
557.375
557.492
557.605
557.784
557.911
558.049
569.698
569.661
569.59
569.486
569.352
569.19
569.008
568.81
568.603
568.391
568.175
567.957
567.736
567.514
567.287
567.057
566.823
566.587
566.349
566.108
565.867
565.625
565.383
565.14
564.898
564.656
564.415
564.174
563.935
563.696
563.462
563.226
562.997
562.767
562.542
562.319
562.101
561.885
561.674
561.466
561.261
561.063
560.864
560.675
560.483
560.299
560.114
559.934
559.752
559.574
559.392
559.21
559.026
558.836
558.642
558.443
558.235
558.02
557.802
557.569
557.343
557.102
556.87
556.632
556.413
556.191
556.002
555.822
555.673
555.545
555.442
555.36
555.283
555.247
555.185
555.197
555.172
555.248
555.298
555.451
569.627
569.593
569.527
569.431
569.305
569.153
568.98
568.79
568.588
568.378
568.163
567.946
567.726
567.503
567.277
567.047
566.815
566.578
566.341
566.099
565.858
565.614
565.372
565.128
564.885
564.641
564.398
564.156
563.913
563.674
563.435
563.198
562.963
562.73
562.498
562.272
562.045
561.824
561.605
561.388
561.176
560.965
560.758
560.553
560.35
560.148
559.949
559.748
559.548
559.349
559.143
558.937
558.727
558.506
558.285
558.052
557.81
557.561
557.301
557.028
556.752
556.46
556.165
555.862
555.56
555.249
554.953
554.652
554.362
554.086
553.809
553.563
553.303
553.099
552.87
552.72
552.555
552.503
552.485
552.631
569.591
569.559
569.495
569.403
569.281
569.134
568.965
568.779
568.58
568.371
568.156
567.939
567.719
567.495
567.27
567.039
566.808
566.571
566.333
566.091
565.849
565.604
565.361
565.114
564.87
564.625
564.379
564.137
563.889
563.649
563.405
563.165
562.925
562.688
562.451
562.22
561.987
561.759
561.533
561.306
561.087
560.863
560.647
560.429
560.213
559.996
559.782
559.562
559.346
559.123
558.897
558.667
558.431
558.184
557.932
557.67
557.39
557.109
556.804
556.49
556.163
555.815
555.457
555.083
554.695
554.291
553.882
553.458
553.022
552.59
552.14
551.705
551.255
550.852
550.426
550.081
549.757
549.538
549.441
549.51
569.59
569.558
569.494
569.402
569.279
569.132
568.963
568.777
568.578
568.368
568.154
567.935
567.716
567.491
567.266
567.034
566.802
566.565
566.326
566.083
565.84
565.594
565.349
565.101
564.855
564.608
564.359
564.115
563.863
563.622
563.372
563.13
562.886
562.644
562.403
562.165
561.925
561.692
561.456
561.223
560.993
560.76
560.533
560.303
560.075
559.843
559.615
559.377
559.144
558.902
558.653
558.403
558.14
557.867
557.592
557.29
556.985
556.663
556.318
555.958
555.584
555.174
554.754
554.307
553.828
553.331
552.805
552.253
551.664
551.076
550.433
549.797
549.145
548.491
547.86
547.263
546.74
546.325
546.042
546.02
569.624
569.59
569.525
569.428
569.301
569.149
568.976
568.786
568.583
568.371
568.156
567.937
567.717
567.491
567.265
567.032
566.798
566.56
566.318
566.076
565.829
565.584
565.336
565.087
564.839
564.589
564.338
564.091
563.836
563.592
563.338
563.093
562.843
562.596
562.351
562.106
561.862
561.621
561.377
561.136
560.898
560.655
560.418
560.176
559.934
559.693
559.446
559.195
558.945
558.683
558.417
558.144
557.858
557.559
557.259
556.924
556.589
556.231
555.843
555.444
555.014
554.549
554.064
553.544
552.974
552.382
551.741
551.047
550.319
549.54
548.715
547.847
546.958
546.049
545.123
544.273
543.45
542.769
542.26
541.981
569.694
569.657
569.587
569.482
569.345
569.183
569.001
568.803
568.594
568.379
568.163
567.943
567.722
567.495
567.267
567.032
566.797
566.557
566.313
566.069
565.819
565.574
565.322
565.073
564.822
564.569
564.317
564.064
563.809
563.56
563.302
563.053
562.799
562.546
562.298
562.042
561.798
561.545
561.298
561.049
560.799
560.551
560.299
560.05
559.795
559.541
559.283
559.013
558.751
558.469
558.184
557.895
557.581
557.265
556.934
556.571
556.209
555.813
555.384
554.948
554.466
553.943
553.403
552.798
552.151
551.455
550.702
549.868
548.984
548.032
546.97
545.891
544.714
543.494
542.264
541.026
539.881
538.798
537.963
537.354
569.804
569.762
569.682
569.563
569.411
569.234
569.037
568.828
568.611
568.393
568.174
567.954
567.731
567.502
567.272
567.034
566.797
566.554
566.308
566.063
565.81
565.565
565.309
565.059
564.805
564.548
564.296
564.036
563.781
563.525
563.265
563.012
562.751
562.496
562.24
561.981
561.729
561.469
561.216
560.957
560.703
560.443
560.183
559.925
559.655
559.394
559.118
558.839
558.561
558.261
557.961
557.654
557.312
556.985
556.624
556.228
555.852
555.407
554.95
554.477
553.937
553.37
552.769
552.094
551.354
550.589
549.689
548.741
547.701
546.535
545.288
543.898
542.461
540.859
539.242
537.578
535.929
534.384
533.037
532.007
569.962
569.91
569.812
569.672
569.497
569.296
569.08
568.857
568.632
568.411
568.191
567.97
567.744
567.513
567.28
567.039
566.799
566.552
566.305
566.057
565.803
565.555
565.296
565.045
564.787
564.528
564.273
564.009
563.752
563.49
563.227
562.97
562.702
562.446
562.18
561.919
561.658
561.391
561.136
560.861
560.608
560.332
560.068
559.802
559.514
559.253
558.954
558.67
558.376
558.057
557.748
557.42
557.059
556.716
556.325
555.913
555.504
555.03
554.538
554.033
553.437
552.836
552.17
551.424
550.632
549.741
548.772
547.665
546.484
545.133
543.625
542.009
540.167
538.2
536.097
533.904
531.599
529.437
527.369
525.665
570.181
570.11
569.983
569.808
569.596
569.363
569.124
568.886
568.656
568.434
568.212
567.99
567.76
567.527
567.288
567.044
566.801
566.55
566.303
566.05
565.797
565.545
565.285
565.031
564.769
564.508
564.248
563.981
563.722
563.453
563.19
562.923
562.654
562.393
562.117
561.86
561.581
561.319
561.049
560.769
560.513
560.219
559.959
559.674
559.38
559.114
558.795
558.507
558.202
557.857
557.552
557.191
556.819
556.468
556.035
555.621
555.185
554.664
554.174
553.603
552.987
552.337
551.622
550.806
549.952
549
547.883
546.725
545.353
543.838
542.1
540.193
537.985
535.56
532.878
530.015
526.932
523.811
520.877
518.039
570.481
570.376
570.2
569.967
569.702
569.429
569.165
568.916
568.682
568.46
568.237
568.013
567.777
567.539
567.295
567.048
566.801
566.548
566.299
566.044
565.789
565.534
565.273
565.015
564.751
564.486
564.224
563.951
563.69
563.414
563.151
562.876
562.605
562.336
562.054
561.797
561.501
561.248
560.954
560.682
560.413
560.106
559.853
559.54
559.254
558.972
558.636
558.355
558.022
557.677
557.358
556.975
556.6
556.226
555.777
555.344
554.888
554.341
553.825
553.228
552.566
551.901
551.103
550.28
549.325
548.313
547.134
545.839
544.391
542.663
540.763
538.56
535.986
533.038
529.766
525.979
521.836
517.594
513.125
508.892
570.896
570.724
570.465
570.147
569.814
569.499
569.215
568.962
568.729
568.505
568.277
568.046
567.803
567.559
567.308
567.059
566.808
566.554
566.301
566.045
565.786
565.528
565.264
565.001
564.737
564.465
564.202
563.923
563.66
563.379
563.113
562.828
562.562
562.276
562.001
561.729
561.429
561.177
560.863
560.602
560.312
560.004
559.749
559.415
559.139
558.835
558.503
558.21
557.864
557.514
557.187
556.786
556.409
556.003
555.561
555.094
554.625
554.073
553.513
552.896
552.234
551.494
550.683
549.809
548.832
547.679
546.514
545.106
543.541
541.7
539.626
537.195
534.289
530.896
526.967
522.13
516.552
510.607
503.665
497.542
571.439
571.093
570.66
570.218
569.826
569.5
569.23
568.991
568.763
568.536
568.3
568.061
567.811
567.563
567.311
567.06
566.809
566.553
566.299
566.042
565.779
565.521
565.252
564.988
564.72
564.445
564.178
563.898
563.628
563.345
563.074
562.783
562.517
562.22
561.948
561.663
561.364
561.104
560.782
560.524
560.214
559.918
559.64
559.311
559.024
558.705
558.378
558.063
557.728
557.36
557.028
556.635
556.232
555.851
555.375
554.908
554.436
553.849
553.289
552.639
551.968
551.201
550.341
549.483
548.423
547.28
545.955
544.65
542.707
541.122
538.589
536.265
532.871
529.384
524.744
518.97
511.727
503.311
491.392
481.084
572.899
571.884
570.975
570.301
569.851
569.543
569.296
569.064
568.826
568.583
568.332
568.082
567.826
567.574
567.322
567.068
566.817
566.56
566.303
566.044
565.78
565.52
565.249
564.983
564.711
564.438
564.166
563.887
563.611
563.33
563.05
562.767
562.485
562.2
561.913
561.632
561.336
561.058
560.758
560.471
560.181
559.876
559.585
559.281
558.963
558.675
558.326
558.016
557.682
557.304
556.988
556.571
556.18
555.792
555.298
554.853
554.367
553.75
553.253
552.512
551.925
551.03
550.301
549.324
548.313
547.078
545.943
544.235
542.752
540.696
538.517
535.836
532.59
528.653
524.049
516.974
510.228
497.516
482.402
458.342
562.756
562.421
562.203
562.109
562.166
562.404
562.741
563.16
563.663
564.233
564.917
565.386
565.655
565.404
564.888
564.872
565.555
566.778
567.99
568.253
562.937
562.512
562.064
561.799
561.66
562.025
562.467
562.974
563.576
564.285
565.106
565.607
565.436
564.756
564.071
563.99
564.606
565.867
567.137
567.86
562.371
562.112
561.87
561.703
561.752
561.788
562.066
562.657
563.4
564.172
564.958
565.308
564.717
563.468
562.559
562.278
562.839
564.126
565.496
566.869
563.423
563.508
561.693
560.345
559.282
559.758
561.168
562.308
563.656
564.707
565.506
565.303
563.99
562.275
561.136
560.669
561.093
562.222
563.519
565.396
562.134
561.441
560.003
559.327
559.066
559.706
559.415
561.192
564.17
565.934
566.637
566.049
563.915
561.632
560.03
559.082
559.317
560.652
561.859
563.842
560.272
559.895
559.403
558.929
558.732
558.205
559.504
562.84
565.247
567.271
567.843
566.903
564.371
561.921
560.084
558.712
559.252
561.297
560.706
562.835
558.084
558.082
558.158
558.162
558.647
559.347
561.422
563.615
566.205
568.127
568.62
567.987
565.61
562.941
559.984
558.29
558.45
559.621
558.862
563.846
555.642
555.925
556.377
556.955
557.984
559.473
561.515
563.865
566.357
567.986
568.637
568.051
566.224
564.05
562.742
562.702
563.466
564.465
564.266
569.315
552.91
553.381
554.08
555.082
556.453
558.332
560.612
563.136
565.699
567.736
569.362
569.201
566.937
564.677
562.463
561.509
561.136
563.002
564.406
571.912
549.802
550.355
551.196
552.415
554.045
556.122
558.691
561.617
564.427
566.534
567.296
567.715
567.486
565.729
565.297
566.164
567.545
569.363
570.885
585.798
546.199
546.746
547.648
548.95
550.789
553.083
555.78
559.004
562.673
566.859
571.089
572.425
566.182
561.54
563.251
565.804
568.968
569.574
567.841
574.839
542.05
542.449
543.362
544.726
546.584
549.205
552.327
555.527
558.563
560.908
562.441
562.549
561.425
562.336
565.113
568.049
569.231
570.063
568.955
572.341
537.155
537.396
538.162
539.649
541.648
544.131
547.484
551.722
556.146
559.824
562.064
563.195
564.54
566.571
568.682
569.568
568.951
568.911
567.076
569.241
531.329
531.372
531.974
533.26
535.674
538.664
541.483
544.442
548.201
552.478
556.805
560.961
564.578
566.592
568.053
568.874
567.973
566.688
565.136
565.757
524.479
523.91
524.452
525.798
527.887
531.617
536.833
541.571
544.946
547.201
549.891
554.61
559.906
563.986
566.945
567.763
566.216
563.949
562.702
562.928
516
514.997
514.905
516.625
519.226
521.585
525.053
530.523
536.552
542.075
546.69
551.164
555.83
560.515
563.886
564.686
563.17
560.448
559.284
559.526
505.299
503.224
503.14
504.86
509.381
514.807
519.018
522.297
526.619
532.413
539.054
545.488
550.66
555.055
558.219
559.287
557.971
555.309
554.112
554.476
491.871
488.324
488.104
489.895
492.059
497.22
505.956
514.366
520.893
526.07
531.697
537.922
543.433
547.918
551.231
552.323
551.044
549.013
548.275
548.953
471.767
469.24
472.204
476.202
479.237
482.09
488.675
499.393
509.376
516.89
522.823
528.765
534.313
539.06
542.82
544.549
544.356
543.345
543.228
544.355
431.982
439.21
445.365
448.329
454.685
466.242
478.352
488.69
498.291
507.019
514.132
520.103
525.358
530.012
534.187
537.073
538.262
538.535
539.264
540.943
393.474
424.484
422.218
411.565
414.106
435.681
458.686
475.164
486.308
495.918
504.169
511.163
517.089
522.081
526.629
530.604
533.437
535.395
537.225
539.272
416.268
414.902
404.798
384.399
381.845
404.41
436.682
460.258
473.348
483.833
493.367
501.687
508.793
514.655
519.889
524.937
529.321
532.822
535.797
538.251
395.541
399.733
385.706
359.825
356.437
378.848
413.709
443.565
461.727
472.907
482.665
491.68
499.769
506.544
512.552
518.556
524.251
529.122
533.32
535.89
396.711
395.196
373.583
349.538
342.733
360.073
396.838
429.377
450.927
463.914
473.773
482.988
491.53
498.566
504.764
511.201
517.834
523.942
528.953
531.549
394.815
391.449
373.191
351.837
341.062
363.866
387.289
419.183
442.897
456.079
465.532
474.793
483.541
490.735
496.987
503.591
510.558
517.024
522.272
525.081
397.78
392.169
380.258
367.766
369.571
377.693
393.059
419.015
436.836
448.53
457.295
466.076
474.577
482.032
488.723
495.461
502.316
508.605
513.778
516.76
393.559
390.69
385.661
386.661
393.645
399.216
414.009
425.068
438.076
444.911
450.94
458.042
465.437
472.702
479.726
486.623
493.267
499.253
504.284
507.103
390.388
389.506
386.668
395.935
412.788
422.588
429.527
440.166
439.798
442.618
446.998
451.915
457.229
463.418
470.234
477.019
483.518
489.284
493.944
496.432
388.527
391.428
389.348
400.559
422.057
432.567
440.783
444.268
440.695
439.56
441.025
444.986
449.521
454.728
460.878
467.279
473.358
478.671
482.967
485.205
382.435
387.067
394.008
400.958
419.306
430.017
437.898
437.856
437.869
430.385
430.661
434.466
439.479
444.854
450.97
457.268
462.963
467.81
471.756
473.863
381.262
378.316
389.483
396.576
405.111
413.479
419.426
421.849
421.438
418.067
416.748
420.749
426.856
433.253
440.017
446.607
452.106
456.68
460.501
462.593
393.997
382.933
379.973
380.664
381.83
385.373
389.797
395.387
396.956
397.991
398.821
404.501
411.906
419.893
427.86
435.106
440.87
445.525
449.276
451.317
397.726
380.829
365.444
357.029
352.211
351.03
354.343
361.874
366.519
371.315
377.734
385.079
394.563
405.21
415.053
423.13
429.239
434.205
438.089
440.101
380.238
363.503
343.317
329.038
319.932
314.817
317.425
324.752
331.528
342.133
353.793
363.076
375.012
389.174
401.496
410.792
417.663
423.115
427.143
429.13
352.36
337.556
316.558
299.747
288.015
280.713
282.508
288.619
296.634
312.734
328.695
340.411
354.863
372.507
387.415
398.173
406.04
412.278
416.714
418.85
322.895
309.62
289.661
272.382
259.195
250.863
251.44
256.12
265.394
285.479
304.59
318.347
335.498
356.483
373.715
385.967
395.088
402.201
407.144
409.536
297.1
285.418
266.965
249.495
234.891
225.41
224.938
228.523
239.048
262.026
283.236
298.572
318.451
342.03
361.058
374.858
385.35
393.375
398.826
401.42
277.37
266.981
250.36
233.709
218.246
207.501
205.226
207.959
219.688
243.989
265.461
282.109
304.423
329.97
350.55
365.757
377.372
386.162
392.24
394.928
264.836
255.736
241.056
225.577
209.998
199.153
195.297
197.47
209.797
232.744
252.988
270.811
294.929
321.595
342.777
359.196
371.882
381.095
387.67
390.607
259.578
251.791
239.233
225.578
210.957
201.065
197.046
199.056
210.412
229.663
247.705
265.552
289.797
316.709
338.314
355.808
369.013
378.654
385.53
388.841
261.108
254.251
243.29
231.501
219.383
210.984
207.437
209.25
218.349
232.865
247.905
265.238
289.043
315.032
337.763
355.765
369.113
379.082
386.008
389.499
268.224
262.04
252.39
241.828
231.038
223.755
220.21
221.193
227.813
238.723
251.924
269.423
293.253
319.011
341.44
358.501
371.655
381.683
388.85
392.489
280.478
274.649
265.453
255.292
244.927
237.363
232.842
232.446
236.778
245.62
259.349
278.346
302.957
327.9
348.379
364.028
376.554
386.371
393.735
397.475
297.167
291.624
282.627
272.11
261.313
252.155
246.339
244.61
248.041
256.844
271.988
292.694
317.295
340.277
357.84
371.864
383.49
392.714
400.018
403.944
317.831
312.317
303.461
293.041
281.486
271.323
264.12
261.652
265.289
275.175
291.357
312.143
334.412
353.899
368.755
381.225
391.554
400.095
407.333
411.136
341.606
336.387
327.834
317.77
306.485
296.207
288.685
286.403
290.499
300.704
316.466
334.95
353.357
368.554
380.682
391.272
400.179
407.934
414.701
418.433
367.352
362.685
355.013
345.776
335.742
326.255
319.382
317.777
321.912
330.975
344.188
358.824
372.302
383.339
392.658
400.897
408.409
415.332
421.509
425.06
394.239
389.97
383.139
375.51
366.938
358.743
352.849
351.572
354.782
361.476
371.045
381.121
390.128
397.555
404.021
410.368
416.452
422.135
427.665
430.892
420.208
416.529
410.706
404.612
397.62
390.271
384.894
383.461
385.276
388.75
394.54
400.693
406.009
410.471
414.677
419.013
423.225
427.879
432.489
435.448
444.388
441.037
435.918
430.794
424.976
418.273
412.804
410.549
410.715
411.638
413.973
417.149
419.624
421.878
424.268
426.489
428.935
432.431
435.985
438.357
465.972
462.728
457.758
452.965
447.695
441.382
435.547
432.357
431.015
430.099
430
430.95
431.259
431.869
432.529
432.803
433.633
435.235
437.621
439.568
484.084
480.935
475.909
470.992
465.732
459.337
453.152
449.287
447.255
444.958
443.26
442.404
441.331
440.589
439.665
438.239
437.143
436.743
437.444
438.847
498.887
495.735
490.495
485.17
479.699
473.129
466.717
462.228
459.763
457.073
454.253
452.126
450.009
447.78
445.806
443.271
440.362
437.664
435.915
437.294
510.267
507.215
501.93
496.158
490.296
483.642
476.915
472.36
469.495
466.751
463.204
460.253
457.308
453.953
451.082
447.248
443.176
439.026
435.06
436.175
518.229
515.408
510.445
504.671
498.524
491.915
484.905
480.139
477.212
474.614
470.711
467.2
463.638
459.662
455.968
451.308
446.599
441.588
436.715
436.883
522.948
520.576
516.123
510.629
504.507
498.147
491.352
486.131
483.237
480.802
476.895
472.82
468.781
464.825
460.487
455.24
450.173
444.869
440.237
440.05
524.908
522.941
519.128
514.098
508.245
502.05
495.936
490.706
487.947
485.778
482.139
477.641
473.506
469.744
464.828
459.501
454.514
449.336
445.382
445.135
524.747
522.97
519.817
515.533
510.262
504.456
498.943
494.273
491.633
489.806
486.79
481.95
477.727
474.024
469.331
464.195
458.514
453.693
451.189
450.96
523.28
521.446
518.709
515.086
510.817
505.753
500.839
496.802
494.276
492.503
490.054
485.274
481.142
477.749
472.995
468.184
463.381
459.286
457.089
456.709
521.165
519.205
516.6
513.307
509.973
505.888
501.835
498.416
496.19
494.555
492.469
488.278
484.118
481.077
476.821
472.639
467.988
464.35
462.581
462.616
518.662
516.71
514.313
511.237
508.536
505.333
502.377
499.704
497.836
496.697
494.778
491.682
486.864
484.327
479.893
475.808
472.08
468.961
467.443
468.312
515.751
513.97
512.208
509.506
507.188
504.692
502.704
500.723
499.168
498.243
496.617
494.392
489.053
486.524
482.779
479.513
476.296
474.147
473.787
474.385
512.327
510.995
510.219
507.9
505.808
503.833
502.389
501.204
499.991
499.029
497.536
495.159
491.327
488.635
485.334
482.215
479.844
478.174
476.915
477.411
509.125
508.342
508.302
506.048
503.851
502.46
501.348
500.882
500.383
499.602
498.316
496.018
492.937
490.136
487.276
484.764
482.377
481.124
480.89
482.602
506.709
506.098
506.285
504.028
501.35
500.733
499.991
499.903
501.098
499.837
499.479
497.354
494.225
491.529
488.625
486.169
484.531
483.88
484.31
484.976
504.154
503.551
504.453
502.577
499.427
499.218
499.446
499.89
500.62
500.139
499.956
498.269
494.969
491.889
488.963
486.904
485.341
484.173
484.676
486.596
501.688
501.408
503.074
500.498
499.671
498.764
498.919
499.028
499.497
498.968
498.807
497.438
494.266
491.2
488.504
486.568
485.895
485.747
486.918
488.595
500.367
500.335
501.792
500.607
499.588
497.566
496.571
495.689
495.251
494.734
494.514
493.889
491.646
489.187
487.248
485.453
484.158
483.88
484.333
485.137
498.969
500.332
500.917
499.438
496.64
493.031
490.121
487.682
486.164
485.681
485.715
486.012
485.308
484.243
482.801
481.525
480.891
481.452
482.309
484.67
495.129
497.574
497.782
494.575
489.008
483.31
478.086
474.009
471.541
470.969
471.67
473.155
474.145
475.084
475.878
476.178
476.662
477.834
478.89
479.292
491.395
491.894
490.77
484.622
476.349
468.113
460.898
455.127
451.915
451.329
452.438
454.64
458.298
462.295
465.646
467.847
468.524
469.05
470.856
473.275
489.604
486.005
480.206
470.099
459.425
448.835
439.5
432.51
428.256
427.297
429.045
432.238
437.327
443.835
450.057
454.494
458.62
461.685
463.452
463.643
484.063
477.037
465.402
451.642
438.319
426.197
415.548
406.947
402.045
400.65
401.732
405.781
413.196
422.12
431.615
439.528
444.296
446.715
449.174
451.653
469.746
460.852
446.166
430.255
415.439
401.654
389.48
379.721
373.791
372.01
373.419
377.881
385.876
396.955
408.38
418.214
425.751
431.085
434.673
435.694
447.414
438.581
423.02
406.36
390.543
375.495
362.008
351.376
345.16
342.471
343.514
349.148
357.819
369.545
382.607
395.232
405.363
412.662
415.718
418.477
420.614
412.4
397.362
380.831
364.303
348.203
333.745
322.495
315.963
313.246
314.298
319.373
328.591
341.194
355.87
370.572
382.04
389.524
395.183
397.573
391.967
384.488
370.474
354.461
337.59
320.734
305.784
294.421
287.348
284.011
285.193
290.885
299.838
312.556
328.01
343.439
357.112
366.526
370.644
373.084
363.596
356.747
343.769
328.427
311.39
294.232
278.994
267.546
260.413
256.637
257.357
262.58
271.33
284.351
300.547
316.832
330.313
339.791
346.11
350.104
336.918
330.606
318.583
303.73
286.824
269.921
254.451
242.678
235.026
230.832
231.353
236.505
244.562
257.403
273.187
288.98
302.997
313.521
319.701
322.865
312.798
306.953
295.82
281.493
264.708
248.034
232.939
221.019
212.81
207.705
207.69
212.047
219.736
232.36
247.807
263.473
277.411
288.12
294.227
297.692
292.047
286.519
276.234
262.515
246.278
229.853
214.446
202.423
193.525
187.672
186.701
190.619
197.829
209.945
224.605
239.064
253.26
263.394
269.154
272.113
275.117
269.87
260.253
246.946
231.501
215.741
200.215
187.651
177.964
170.979
169.58
172.624
179.327
191.282
204.721
216.914
228.87
237.875
242.513
244.759
262.095
257.238
248.304
235.753
220.72
205.004
189.932
177.142
166.383
158.504
156.092
158.46
165.083
176.017
187.693
198.663
209.189
216.316
219.208
222.76
253.215
248.661
240.226
228.663
214.645
198.977
183.887
170.926
159.435
150.904
148.362
150.042
155.947
166.243
175.76
184.163
191.837
195.567
196.439
195.482
248.067
243.911
236.087
225.304
212.317
197.205
182.586
169.859
158.027
149.448
146.286
147.486
153.914
162.364
169.12
174.497
177.668
175.883
172.769
173.897
246.113
242.533
235.798
225.966
213.537
199.332
185.849
173.985
162.399
154.127
152
152.746
157.767
164.874
168.924
170.123
167.843
160.372
151.667
143.195
247.964
244.621
238.577
229.907
218.329
205.469
193.465
182.616
173.255
166.672
164.512
165.197
169.69
174.217
174.958
171.861
161.817
143.849
123.675
113.631
253.406
250.254
244.699
236.783
226.422
215.597
204.863
195.379
188.307
184.274
183.056
184.857
188.035
190.234
187.594
178.284
161.015
133.841
99.2714
68.6566
261.256
258.695
253.814
246.739
238.146
229.11
219.822
212.407
207.859
205.792
206.056
208.332
211.12
210.703
206.649
192.017
166.679
127.241
69.0665
11.2891
271.197
269.014
264.819
258.988
252.246
244.522
236.832
231.616
229.101
229.548
231.081
234.331
237.685
235.916
227.938
209.347
177.403
129.498
50.1571
-70.8277
282.871
280.869
277.159
272.486
267.04
260.667
255.181
251.851
250.775
252.518
256.259
261.159
264.363
263.246
254.505
232.972
194.575
140.946
52.6564
-152.558
295.745
293.839
290.54
286.596
282.182
277.632
274.121
271.795
272.33
275.679
281.106
287.582
292.843
292.682
284.081
264.449
222.302
161.79
86.8609
-92.0731
309.711
307.588
304.414
300.792
297.037
294.052
292.101
291.421
293.512
298.384
305.439
313.796
319.744
322.886
317.454
299.314
262.096
195.14
147.697
-12.4845
324.124
322.15
318.942
315.4
312.144
309.93
309.144
310.025
313.702
320.512
329.268
339.891
348.392
353.062
355.603
339.002
313.683
238.554
202.986
82.3082
337.825
335.986
333.002
329.495
326.314
324.427
324.941
327.965
333.786
342.43
352.704
364.945
376.835
381.93
396.551
375.278
371.095
289.843
234.912
175.308
351.196
348.615
345.446
342.075
339.146
337.94
339.189
343.281
350.899
362.114
374.207
386.63
403.885
408.587
445.138
404.093
411.292
348.5
279.508
251.809
365.246
361.329
356.401
351.895
348.409
347.06
349.503
355.87
365.268
378.102
392.567
404.167
427.544
428.496
475.236
434.579
428.216
405.18
342.581
304.531
378.979
375.183
369.452
363.83
359.258
357.148
359.917
367.627
379.362
390.675
403.55
415.632
444.119
448.336
468.855
466.844
452.527
449.251
392.426
338.558
386.169
382.205
376.998
371.355
367.378
366.45
368.075
372.086
380.704
392.578
401.534
427
456.844
473.492
463.888
502.525
479.417
470.537
422.003
361.208
395.598
390.127
382.166
374.583
369.776
369.706
372.959
377.945
387.589
400.571
418.119
447.222
471.305
498.997
479.119
530.13
496.382
477.652
433.636
372.438
-363.684
-275.962
-347.393
-335.205
-368.337
-407.123
-421.642
-393.072
-340.869
-291.491
-232.067
-173.548
-134.549
-99.2793
-74.7834
-57.3859
-42.3455
-30.1708
-18.6134
-10.1092
-5.02756
-3.57148
-6.78891
-17.072
-37.5685
-69.6618
-112.325
-161.82
-213.111
-260.286
-296.759
-316.756
-318.189
-304.495
-277.605
-241.22
-201.544
-163.902
-130.204
-103.366
-83.9012
-69.7148
-60.7734
-54.6131
-50.93
-47.3039
-43.4734
-39.5341
-34.9741
-29.0372
-24.0294
-18.7772
-13.8676
-9.69809
-6.22705
-3.56385
-1.87016
-0.635096
0.316394
1.13231
2.14871
3.02357
3.99276
4.74103
5.09414
5.28569
4.97017
4.1932
3.171
1.78117
0.437735
-0.736708
-1.90248
-2.79782
-3.37711
-3.72739
-3.60269
-3.0576
-2.18386
-0.842463