/*--------------------------------*- C++ -*----------------------------------*\
| =========                 |                                                 |
| \\      /  F ield         | OpenFOAM: The Open Source CFD Toolbox           |
|  \\    /   O peration     | Version:  2306                                  |
|   \\  /    A nd           | Website:  www.openfoam.com                      |
|    \\/     M anipulation  |                                                 |
\*---------------------------------------------------------------------------*/
FoamFile
{
    version     2.0;
    format      ascii;
    arch        "LSB;label=32;scalar=64";
    class       surfaceScalarField;
    location    "0.25";
    object      phi;
}
// * * * * * * * * * * * * * * * * * * * * * * * * * * * * * * * * * * * * * //

dimensions      [0 3 -1 0 0 0 0];

oriented        oriented;

internalField   nonuniform List<scalar> 
8520
(
0.00992784
7.21557e-05
0.00978962
0.000138228
0.00962949
0.000160127
0.00946827
0.000161217
0.00930941
0.00015886
0.00914917
0.00016024
0.00898634
0.000162834
0.00882098
0.000165354
0.00865366
0.00016732
0.00848565
0.000168015
0.00831785
0.000167795
0.0081511
0.000166752
0.00798553
0.000165569
0.00782135
0.000164183
0.00765851
0.00016284
0.0074971
0.000161409
0.00733721
0.000159892
0.00717886
0.000158351
0.00702223
0.000156626
0.00686735
0.000154881
0.00671434
0.000153009
0.00656331
0.000151031
0.00641421
0.000149097
0.0062673
0.000146908
0.00612236
0.000144944
0.00597976
0.000142599
0.00583915
0.00014061
0.00570096
0.000138194
0.00556479
0.000136161
0.00543101
0.000133785
0.00529937
0.00013164
0.00516992
0.00012945
0.00504262
0.000127303
0.00491719
0.00012543
0.00479389
0.0001233
0.00467203
0.000121854
0.00455211
0.000119922
0.00443314
0.000118969
0.00431569
0.00011745
0.00419858
0.000117111
0.00408236
0.000116221
0.00396575
0.000116612
0.00384921
0.000116539
0.00373138
0.000117829
0.00361256
0.00011882
0.00349125
0.000121307
0.00336769
0.000123567
0.00324008
0.000127609
0.00310874
0.000131333
0.00297148
0.000137259
0.00282877
0.000142714
0.00267801
0.000150764
0.0025198
0.000158209
0.00235126
0.000168533
0.00217319
0.000178075
0.00198255
0.00019064
0.00178048
0.000202071
0.00156405
0.000216424
0.00133512
0.000228937
0.00109121
0.000243903
0.000835694
0.00025552
0.000567406
0.000268288
0.000294305
0.000273101
2.68165e-05
0.000267488
-0.000216142
0.000242959
-0.000425918
0.000209776
-0.000575407
0.000149489
-0.000652157
7.67497e-05
-0.00063172
-2.0436e-05
-0.000512331
-0.000119389
-0.000282556
-0.000229775
-1.71904e-06
-0.000280837
0.00024405
-0.000245769
0.000369955
-0.000125905
8.12611e-05
0.000288694
-0.000384789
0.00046605
-0.00023901
-0.000145779
0.000127203
-0.000366213
0.000151454
-2.4251e-05
0.000205649
-5.41953e-05
0.0100357
3.64412e-05
0.0100798
9.4138e-05
0.0101108
0.000129131
0.0101272
0.000144817
0.0101357
0.000150338
0.0101431
0.000152882
0.0101493
0.000156623
0.0101532
0.000161454
0.0101536
0.00016692
0.0101502
0.000171387
0.010143
0.000175065
0.0101324
0.000177327
0.0101188
0.000179148
0.0101028
0.000180221
0.0100844
0.000181244
0.0100637
0.00018207
0.0100409
0.000182654
0.0100159
0.000183426
0.0099889
0.00018358
0.00995965
0.000184137
0.00992869
0.000183964
0.00989558
0.000184145
0.00986083
0.000183849
0.00982415
0.000183582
0.00978578
0.000183319
0.00974578
0.000182601
0.00970391
0.000182472
0.00966075
0.000181358
0.00961552
0.00018139
0.00956926
0.000180043
0.00952075
0.000180151
0.00947126
0.000178944
0.00941957
0.000178994
0.00936667
0.000178327
0.0093117
0.000178273
0.00925516
0.000178393
0.00919658
0.000178503
0.00913609
0.000179454
0.00907335
0.000180187
0.00900841
0.00018205
0.00894064
0.000183996
0.00887041
0.000186842
0.00879656
0.000190392
0.0087201
0.000194284
0.00863869
0.000200233
0.00855451
0.000205487
0.00846382
0.000214254
0.00836977
0.000221657
0.00826773
0.000233377
0.00816105
0.000243936
0.00804496
0.000258802
0.00792231
0.000273415
0.00778877
0.000291756
0.00764618
0.000311117
0.00749099
0.000333264
0.00732397
0.000357666
0.00714223
0.00038381
0.00694594
0.000412709
0.00673255
0.000442328
0.00650262
0.000473838
0.00625388
0.000504262
0.00598845
0.000533718
0.00570351
0.000558034
0.00539711
0.000573893
0.00507113
0.000568941
0.00471755
0.000563352
0.00432285
0.000544188
0.00387802
0.000521577
0.00336236
0.000495228
0.00275344
0.000489529
0.00200504
0.00051862
0.00114471
0.000579496
0.000300441
0.000598501
-0.000290317
0.000464853
-0.000439704
0.00043808
-0.000269287
0.000295633
-0.000282552
-0.000132514
-0.000331826
-0.000316938
-0.000282669
-7.34085e-05
0.000255668
-0.000332688
0.0100142
2.22766e-05
0.010044
6.42971e-05
0.0100778
9.53743e-05
0.0101073
0.000115286
0.0101313
0.000126338
0.0101522
0.000132008
0.0101729
0.000135844
0.010195
0.000139423
0.0102178
0.000144074
0.0102408
0.000148419
0.010263
0.000152865
0.0102843
0.000156061
0.0103043
0.000159055
0.0103237
0.000160892
0.0103422
0.000162739
0.0103602
0.000164098
0.0103775
0.000165333
0.0103941
0.000166764
0.0104101
0.000167576
0.0104253
0.000168986
0.0104397
0.000169586
0.0104532
0.000170635
0.0104657
0.000171376
0.0104775
0.000171781
0.0104878
0.000172977
0.0104978
0.000172607
0.0105058
0.000174465
0.0105138
0.000173307
0.0105193
0.000175907
0.0105252
0.000174152
0.010528
0.000177367
0.0105314
0.000175537
0.0105314
0.000178981
0.010532
0.000177792
0.0105291
0.000181119
0.0105263
0.00018118
0.0105204
0.000184392
0.0105138
0.000186043
0.0105046
0.000189426
0.0104937
0.000192935
0.0104808
0.000196923
0.0104652
0.000202447
0.0104479
0.000207717
0.010427
0.000215186
0.0104043
0.000222877
0.0103776
0.000232228
0.0103484
0.000243442
0.0103151
0.000254989
0.0102779
0.000270548
0.0102369
0.000284918
0.01019
0.000305691
0.01014
0.000323483
0.0100814
0.000350324
0.0100202
0.000372327
0.00994785
0.000405591
0.00987275
0.000432762
0.00978431
0.000472254
0.0096922
0.000504818
0.00958485
0.000549676
0.00947237
0.000586319
0.00934274
0.000633894
0.00920534
0.000671117
0.00904774
0.000715637
0.0088753
0.000746331
0.00866562
0.000778617
0.00842806
0.000800916
0.00814142
0.000830829
0.00781289
0.000850107
0.00742337
0.000884745
0.00698865
0.000924252
0.00651439
0.000992877
0.0060286
0.00106528
0.00548426
0.00114285
0.00476818
0.00118094
0.00402019
0.00118606
0.00315889
0.00115694
0.0019902
0.00103617
0.000682361
0.000990902
-0.000178966
0.000787919
0.000569635
-0.000492933
0.0100069
1.53643e-05
0.0100268
4.44177e-05
0.0100518
7.03279e-05
0.010077
9.01582e-05
0.0101002
0.000103084
0.0101223
0.000109935
0.010143
0.000115153
0.0101643
0.000118108
0.0101862
0.000122203
0.0102096
0.000124958
0.010233
0.000129534
0.0102571
0.000131921
0.0102803
0.00013589
0.010304
0.000137138
0.0103267
0.000140025
0.0103502
0.000140633
0.0103728
0.000142706
0.0103962
0.000143435
0.0104189
0.000144861
0.0104419
0.000145949
0.0104646
0.000146919
0.0104871
0.000148117
0.0105095
0.000149003
0.0105313
0.000149908
0.0105532
0.000151151
0.0105743
0.000151469
0.0105953
0.000153445
0.0106156
0.000152987
0.0106356
0.000155987
0.010655
0.000154761
0.0106735
0.000158862
0.0106918
0.000157238
0.0107086
0.000162112
0.0107256
0.000160841
0.0107407
0.000166043
0.0107559
0.000165937
0.0107691
0.000171224
0.0107822
0.000172898
0.0107933
0.000178302
0.010804
0.000182242
0.010813
0.00018797
0.0108208
0.000194589
0.0108274
0.00020115
0.010832
0.000210556
0.0108358
0.000219068
0.010837
0.000231066
0.0108376
0.000242874
0.010835
0.000257576
0.0108319
0.000273636
0.0108251
0.000291732
0.0108179
0.000312839
0.0108065
0.000334941
0.0107945
0.000362311
0.0107782
0.000388578
0.0107604
0.000423472
0.010739
0.00045416
0.0107144
0.000496852
0.0106867
0.000532483
0.0106545
0.000581828
0.0106183
0.000622558
0.0105762
0.000675952
0.0105265
0.000720896
0.0104676
0.000774485
0.0103912
0.000822795
0.0102963
0.000873518
0.0101704
0.000926717
0.0100262
0.000975055
0.00983705
0.00103928
0.0096262
0.00109559
0.00936924
0.00118122
0.00910121
0.0012609
0.00879052
0.00137597
0.00844646
0.00148691
0.00801281
0.00161459
0.00751223
0.00168665
0.00691746
0.00175171
0.00620839
0.00174524
0.00545928
0.00174001
0.00444819
0.00179901
0.0017423
0.00327553
0.0100042
1.11564e-05
0.0100167
3.19701e-05
0.0100349
5.20888e-05
0.0100563
6.87121e-05
0.0100779
8.15121e-05
0.010099
8.88477e-05
0.0101191
9.50184e-05
0.0101398
9.74448e-05
0.0101605
0.000101487
0.0101827
0.000102779
0.0102049
0.000107317
0.0102283
0.000108538
0.0102513
0.000112922
0.0102749
0.00011349
0.010298
0.000116962
0.0103214
0.000117167
0.0103447
0.000119444
0.010368
0.00012015
0.0103917
0.000121104
0.0104147
0.000122966
0.010439
0.000122634
0.0104615
0.000125646
0.0104861
0.000124371
0.010508
0.000128049
0.0105327
0.000126447
0.0105539
0.000130219
0.0105784
0.000128989
0.0105991
0.00013226
0.0106229
0.00013221
0.0106433
0.000134389
0.0106658
0.000136286
0.010686
0.000137068
0.010707
0.000141135
0.0107269
0.000140918
0.0107461
0.000146892
0.0107656
0.000146437
0.0107827
0.000154061
0.0108016
0.000153987
0.0108167
0.000163194
0.0108347
0.00016428
0.010848
0.000174705
0.0108643
0.000178207
0.0108762
0.000189338
0.0108903
0.000196402
0.0109009
0.000208433
0.0109125
0.000219475
0.010922
0.000233407
0.010931
0.000248537
0.0109392
0.000265455
0.0109458
0.000285166
0.0109528
0.000305814
0.0109568
0.000330974
0.0109631
0.000355957
0.0109643
0.00038737
0.0109704
0.000417445
0.0109692
0.000455305
0.0109745
0.000491572
0.0109718
0.000535194
0.0109752
0.000578427
0.0109703
0.000627436
0.0109696
0.000676644
0.0109587
0.000731851
0.0109473
0.000785837
0.0109228
0.000847354
0.0108895
0.000906816
0.010842
0.000974172
0.0107751
0.00104198
0.0106936
0.00112071
0.0105851
0.00120417
0.0104633
0.00130297
0.0103125
0.0014117
0.0101466
0.00154191
0.00995183
0.00168167
0.00973872
0.0018277
0.00946655
0.00195882
0.00912954
0.00208872
0.00870273
0.00217205
0.00813776
0.00230498
0.00754539
0.00239139
0.00254213
0.00674556
0.0100029
8.23642e-06
0.0100117
2.31448e-05
0.0100255
3.83221e-05
0.010043
5.11761e-05
0.0100625
6.20403e-05
0.0100823
6.90688e-05
0.0101025
7.48388e-05
0.0101223
7.76366e-05
0.0101428
8.09303e-05
0.0101635
8.21296e-05
0.0101855
8.52756e-05
0.0102075
8.65656e-05
0.0102306
8.98429e-05
0.0102532
9.08661e-05
0.0102766
9.35489e-05
0.0102995
9.43174e-05
0.0103229
9.59906e-05
0.0103459
9.71415e-05
0.0103695
9.75158e-05
0.0103926
9.98666e-05
0.0104164
9.88392e-05
0.0104394
0.000102661
0.0104633
0.00010045
0.010486
0.000105349
0.0105099
0.000102561
0.0105322
0.000107918
0.0105559
0.000105287
0.0105777
0.000110455
0.010601
0.000108894
0.0106223
0.000113088
0.0106449
0.000113718
0.0106659
0.00011611
0.0106873
0.00011973
0.0107079
0.000120272
0.010728
0.00012683
0.0107481
0.000126334
0.0107668
0.000135322
0.0107862
0.000134606
0.0108035
0.000145911
0.0108221
0.000145633
0.0108378
0.000159024
0.0108555
0.000160492
0.0108699
0.000174984
0.0108861
0.00018016
0.0108996
0.000194925
0.010914
0.000205077
0.010927
0.000220452
0.0109395
0.000236017
0.0109521
0.00025283
0.0109629
0.000274371
0.0109754
0.000293379
0.010985
0.000321321
0.0109972
0.000343779
0.0110065
0.000378031
0.0110187
0.000405264
0.011028
0.00044601
0.0110408
0.00047877
0.0110504
0.000525619
0.0110625
0.000566296
0.0110736
0.000616373
0.011081
0.000669211
0.0110925
0.0007204
0.0110911
0.000787147
0.0110985
0.000840027
0.0110837
0.000921561
0.0110804
0.000977497
0.011045
0.00107735
0.011023
0.00114275
0.010964
0.00126315
0.0109157
0.00135129
0.010835
0.00149237
0.0107589
0.00161801
0.0106672
0.0017734
0.0105541
0.00194079
0.0104294
0.00208354
0.010226
0.00229212
0.0100052
0.0023928
0.00965762
0.00265256
0.00935963
0.00268938
0.00297671
0.00892505
0.0100024
5.8454e-06
0.0100092
1.63357e-05
0.0100205
2.70211e-05
0.0100351
3.66262e-05
0.0100526
4.44541e-05
0.0100707
5.09844e-05
0.0100906
5.49324e-05
0.0101097
5.85773e-05
0.0101304
6.01975e-05
0.0101502
6.23049e-05
0.010172
6.3527e-05
0.0101932
6.53577e-05
0.0102159
6.71924e-05
0.0102382
6.85278e-05
0.0102611
7.06777e-05
0.0102843
7.11063e-05
0.0103069
7.33994e-05
0.0103308
7.31875e-05
0.010353
7.53052e-05
0.0103776
7.53166e-05
0.0103995
7.68896e-05
0.0104244
7.78095e-05
0.0104462
7.86372e-05
0.010471
8.05716e-05
0.0104928
8.0743e-05
0.0105171
8.36525e-05
0.0105391
8.32348e-05
0.0105624
8.71977e-05
0.0105849
8.63992e-05
0.0106067
9.1225e-05
0.0106296
9.07929e-05
0.0106501
9.56903e-05
0.0106731
9.66896e-05
0.0106922
0.000101171
0.010715
0.000104015
0.0107328
0.000108522
0.0107552
0.000112911
0.0107718
0.000118032
0.0107934
0.000124297
0.0108092
0.000129831
0.0108293
0.000138946
0.0108449
0.000144861
0.0108631
0.000156842
0.0108786
0.000164684
0.0108951
0.000178361
0.01091
0.000190159
0.0109255
0.000204968
0.0109398
0.000221704
0.0109545
0.000238156
0.0109684
0.000260503
0.0109827
0.000279031
0.0109963
0.000307738
0.0110106
0.000329452
0.0110249
0.000363725
0.0110386
0.000391613
0.0110553
0.000429305
0.0110677
0.000466413
0.0110869
0.000506414
0.0110985
0.000554691
0.0111184
0.000596401
0.0111287
0.000658938
0.0111481
0.00070099
0.011155
0.00078026
0.0111709
0.000824139
0.0111723
0.00092019
0.0111788
0.000970918
0.0111712
0.00108499
0.0111633
0.00115061
0.0111443
0.0012822
0.0111184
0.00137721
0.0110895
0.00152125
0.0110465
0.001661
0.0110113
0.00180858
0.0109462
0.00200594
0.0108853
0.00214437
0.0107775
0.00240002
0.0106544
0.00251589
0.0105033
0.0028036
0.0102936
0.00289912
0.00316364
0.0101066
0.0100021
3.71738e-06
0.0100079
1.05371e-05
0.0100176
1.73125e-05
0.0100305
2.38024e-05
0.0100462
2.86664e-05
0.0100633
3.38866e-05
0.0100823
3.60034e-05
0.0101013
3.95732e-05
0.0101215
3.99441e-05
0.0101416
4.22712e-05
0.0101626
4.25283e-05
0.0101838
4.40979e-05
0.0102056
4.54078e-05
0.0102282
4.59426e-05
0.0102503
4.85893e-05
0.0102739
4.74464e-05
0.0102959
5.14495e-05
0.0103204
4.86865e-05
0.010342
5.36753e-05
0.0103671
5.02631e-05
0.0103885
5.54406e-05
0.0104138
5.25577e-05
0.0104353
5.71596e-05
0.0104603
5.55125e-05
0.010482
5.90646e-05
0.0105064
5.92084e-05
0.0105286
6.10955e-05
0.0105518
6.39428e-05
0.0105748
6.34571e-05
0.0105963
6.96756e-05
0.0106202
6.69383e-05
0.01064
7.58809e-05
0.0106643
7.23918e-05
0.0106828
8.2668e-05
0.0107069
7.99263e-05
0.0107244
9.10042e-05
0.010748
8.92616e-05
0.0107645
0.000101606
0.0107877
0.000101109
0.0108031
0.000114427
0.0108254
0.000116631
0.0108404
0.000129814
0.0108611
0.000136204
0.0108766
0.000149172
0.0108951
0.000159879
0.0109114
0.000173829
0.0109279
0.000188456
0.010945
0.000204642
0.0109601
0.000222991
0.0109778
0.000242863
0.0109923
0.000264498
0.0110106
0.000289459
0.0110251
0.000314906
0.0110441
0.000344782
0.0110596
0.000376069
0.0110787
0.00041026
0.0110964
0.000448656
0.0111148
0.000488002
0.0111349
0.000534589
0.0111523
0.000579034
0.011174
0.000637191
0.0111897
0.000685291
0.0112116
0.000758359
0.0112242
0.000811583
0.0112435
0.000900874
0.0112502
0.000964209
0.011264
0.00107124
0.0112623
0.00115224
0.0112682
0.00127632
0.0112564
0.00138902
0.0112538
0.00152387
0.0112325
0.00168229
0.0112164
0.00182469
0.0111878
0.00203452
0.011143
0.00218913
0.0111059
0.00243712
0.0110131
0.00260876
0.0109572
0.00285951
0.0108059
0.00305038
0.00327979
0.0106898
0.010002
1.69297e-06
0.0100072
5.33902e-06
0.010016
8.51384e-06
0.0100279
1.19269e-05
0.0100424
1.41879e-05
0.010059
1.72331e-05
0.0100769
1.81104e-05
0.0100962
2.03175e-05
0.0101157
2.03904e-05
0.0101363
2.17117e-05
0.0101566
2.22461e-05
0.0101782
2.24432e-05
0.0101992
2.44008e-05
0.0102221
2.30747e-05
0.0102437
2.70089e-05
0.0102675
2.36452e-05
0.0102894
2.95739e-05
0.0103137
2.43417e-05
0.0103357
3.1645e-05
0.0103602
2.57848e-05
0.0103825
3.31477e-05
0.0104068
2.82798e-05
0.0104295
3.44759e-05
0.0104534
3.16137e-05
0.0104763
3.60949e-05
0.0104999
3.56872e-05
0.0105229
3.80555e-05
0.0105459
4.08901e-05
0.010569
4.03814e-05
0.0105913
4.73925e-05
0.0106146
4.36793e-05
0.0106358
5.463e-05
0.0106591
4.90777e-05
0.0106795
6.22806e-05
0.0107024
5.70842e-05
0.0107223
7.10507e-05
0.0107443
6.73128e-05
0.0107638
8.20216e-05
0.010785
8.00008e-05
0.010804
9.54213e-05
0.0108244
9.62024e-05
0.0108428
0.00011142
0.0108626
0.000116406
0.0108804
0.000131351
0.0108997
0.000140546
0.0109172
0.000156404
0.0109359
0.000169675
0.0109537
0.000186869
0.0109716
0.000205075
0.0109902
0.000224312
0.0110082
0.000246499
0.0110266
0.000271058
0.0110464
0.000295082
0.0110645
0.000326643
0.0110857
0.000354909
0.0111056
0.000390374
0.0111269
0.000427392
0.0111488
0.000466096
0.0111712
0.000512165
0.0111938
0.000556407
0.0112176
0.000613452
0.0112409
0.000661909
0.0112647
0.00073464
0.011287
0.00078926
0.0113106
0.000877289
0.0113287
0.000946079
0.0113504
0.0010495
0.0113639
0.00113879
0.0113792
0.00126101
0.0113898
0.00137846
0.0113933
0.00152034
0.0114011
0.00167444
0.0113866
0.00183923
0.0113904
0.0020307
0.011353
0.00222658
0.0113447
0.00244535
0.0112819
0.00267159
0.0112377
0.00290366
0.0111401
0.00314803
0.00339227
0.0110276
0.010002
-2.68153e-07
0.0100069
4.42782e-07
0.0100153
7.83538e-08
0.0100267
5.02997e-07
0.0100406
3.24201e-07
0.010057
8.19372e-07
0.0100744
7.14763e-07
0.0100937
9.59679e-07
0.010113
1.16378e-06
0.0101337
9.5e-07
0.0101538
2.15913e-06
0.0101755
7.33476e-07
0.0101964
3.50634e-06
0.0102191
3.54186e-07
0.0102409
5.29833e-06
0.0102643
1.67064e-07
0.0102867
7.21983e-06
0.0103104
5.93956e-07
0.0103334
8.72072e-06
0.0103569
2.29519e-06
0.0103805
9.5027e-06
0.0104034
5.40461e-06
0.0104278
1.0045e-05
0.0104501
9.32212e-06
0.0104749
1.12775e-05
0.010497
1.35555e-05
0.0105216
1.35227e-05
0.0105439
1.85864e-05
0.0105678
1.64608e-05
0.0105901
2.50495e-05
0.0106136
2.02231e-05
0.0106356
3.26623e-05
0.0106587
2.59866e-05
0.0106802
4.07241e-05
0.0107027
3.46277e-05
0.010724
4.96734e-05
0.0107456
4.57242e-05
0.0107667
6.09314e-05
0.0107878
5.8959e-05
0.0108081
7.5101e-05
0.0108291
7.52024e-05
0.0108484
9.20953e-05
0.0108695
9.53282e-05
0.010888
0.000112877
0.0109093
0.000119191
0.0109267
0.000138978
0.0109491
0.00014729
0.0109655
0.000170543
0.0109888
0.000181758
0.0110055
0.000207604
0.0110284
0.00022354
0.0110473
0.000252198
0.0110697
0.000272694
0.0110908
0.000305524
0.0111137
0.000332043
0.0111372
0.000366865
0.0111602
0.000404391
0.0111872
0.000439085
0.0112106
0.000488769
0.0112397
0.000527277
0.0112659
0.000587313
0.0112953
0.000632517
0.0113238
0.000706043
0.0113536
0.000759467
0.0113833
0.000847632
0.0114123
0.000917072
0.011442
0.00101984
0.0114695
0.00111127
0.0114962
0.00123431
0.0115219
0.00135275
0.0115409
0.00150128
0.0115632
0.00165215
0.0115686
0.00183381
0.0115816
0.00201772
0.0115716
0.00223659
0.0115634
0.00245357
0.0115336
0.00270138
0.0114808
0.00295644
0.0114123
0.00321656
0.00350188
0.0113027
0.0100018
-2.04168e-06
0.0100068
-4.59244e-06
0.0100152
-8.3254e-06
0.0100267
-1.10074e-05
0.0100405
-1.34876e-05
0.010057
-1.56724e-05
0.0100745
-1.67161e-05
0.0100938
-1.84102e-05
0.0101132
-1.81888e-05
0.0101337
-1.96162e-05
0.0101542
-1.83362e-05
0.0101755
-2.04773e-05
0.0101971
-1.8153e-05
0.010219
-2.15233e-05
0.0102417
-1.74423e-05
0.0102642
-2.2323e-05
0.0102877
-1.62317e-05
0.0103105
-2.22549e-05
0.0103344
-1.51433e-05
0.0103572
-2.05631e-05
0.0103816
-1.48575e-05
0.0104041
-1.71003e-05
0.0104291
-1.49983e-05
0.0104511
-1.26756e-05
0.0104767
-1.42462e-05
0.0104985
-8.25736e-06
0.0105237
-1.1735e-05
0.010546
-3.62686e-06
0.0105702
-7.83463e-06
0.0105931
2.16901e-06
0.0106164
-3.00547e-06
0.0106395
9.52457e-06
0.010662
3.47807e-06
0.010685
1.77048e-05
0.0107069
1.27282e-05
0.0107299
2.66826e-05
0.0107509
2.47638e-05
0.0107741
3.77157e-05
0.010794
3.90939e-05
0.0108174
5.16216e-05
0.0108365
5.61591e-05
0.0108598
6.87466e-05
0.0108787
7.64365e-05
0.0109015
9.00812e-05
0.0109208
9.99246e-05
0.0109431
0.000116664
0.0109628
0.000127628
0.0109854
0.000147948
0.0110051
0.000161973
0.0110287
0.000184065
0.0110492
0.000203034
0.0110733
0.000228079
0.0110958
0.000250174
0.0111203
0.000281033
0.0111454
0.000306986
0.0111711
0.000341179
0.0111987
0.000376784
0.011226
0.000411703
0.0112568
0.000458025
0.0112861
0.000497975
0.01132
0.00055336
0.0113518
0.000600792
0.0113885
0.000669316
0.0114229
0.000725049
0.0114623
0.000808215
0.0114984
0.000880974
0.0115405
0.000977737
0.011578
0.00107384
0.0116197
0.00119253
0.011658
0.00131453
0.0116972
0.00146208
0.0117299
0.00161939
0.0117634
0.00180037
0.0117825
0.0019986
0.0118023
0.00221676
0.0117978
0.00245807
0.0117878
0.00271135
0.011747
0.00299729
0.0116776
0.00328595
0.00359233
0.0115872
0.0100017
-3.7156e-06
0.0100072
-1.01141e-05
0.0100159
-1.70004e-05
0.0100279
-2.30566e-05
0.0100422
-2.77796e-05
0.0100592
-3.26326e-05
0.010077
-3.45256e-05
0.0100965
-3.79256e-05
0.0101161
-3.7796e-05
0.0101365
-4.00274e-05
0.0101575
-3.9307e-05
0.0101783
-4.13213e-05
0.0102008
-4.06363e-05
0.0102221
-4.28023e-05
0.0102458
-4.1173e-05
0.0102676
-4.41258e-05
0.0102919
-4.05119e-05
0.0103143
-4.46775e-05
0.0103386
-3.9398e-05
0.0103616
-4.35448e-05
0.0103858
-3.909e-05
0.010409
-4.02862e-05
0.0104335
-3.95361e-05
0.0104565
-3.57027e-05
0.0104814
-3.91048e-05
0.0105044
-3.12465e-05
0.0105289
-3.62856e-05
0.0105525
-2.71663e-05
0.0105759
-3.12796e-05
0.0106004
-2.23328e-05
0.0106225
-2.50652e-05
0.0106478
-1.57604e-05
0.0106688
-1.7531e-05
0.0106943
-7.78748e-06
0.0107146
-7.59505e-06
0.0107403
1.02706e-06
0.0107598
5.20778e-06
0.0107855
1.19852e-05
0.0108044
2.02057e-05
0.0108303
2.57952e-05
0.0108486
3.78424e-05
0.0108746
4.2701e-05
0.0108923
5.87611e-05
0.0109188
6.35842e-05
0.0109362
8.24791e-05
0.0109628
9.01041e-05
0.0109812
0.000109268
0.0110072
0.000121875
0.011027
0.000142175
0.0110536
0.000157506
0.0110743
0.000182296
0.011102
0.00020044
0.0111255
0.000226679
0.0111522
0.00025425
0.0111807
0.000278573
0.0112079
0.00031394
0.0112384
0.000346245
0.0112706
0.000379518
0.011302
0.000426613
0.0113383
0.000461662
0.0113743
0.000517418
0.0114131
0.00056199
0.0114535
0.000628918
0.0114977
0.000680863
0.0115409
0.000764978
0.0115907
0.000831208
0.0116391
0.00092934
0.0116919
0.00102104
0.0117457
0.0011387
0.0118005
0.00125977
0.011857
0.00140552
0.011909
0.00156742
0.0119628
0.00174657
0.0120053
0.00195614
0.0120415
0.00218055
0.0120623
0.00243725
0.0120621
0.00271156
0.012047
0.00301234
0.0119776
0.00335541
0.00367153
0.0118984
0.0100019
-5.62058e-06
0.010008
-1.61665e-05
0.0100176
-2.6612e-05
0.0100306
-3.60427e-05
0.0100461
-4.33247e-05
0.0100637
-5.02443e-05
0.0100823
-5.31176e-05
0.010102
-5.76171e-05
0.0101218
-5.76451e-05
0.0101424
-6.05484e-05
0.0101635
-6.04848e-05
0.0101846
-6.23711e-05
0.0102075
-6.35751e-05
0.0102288
-6.41119e-05
0.0102532
-6.55314e-05
0.0102747
-6.56217e-05
0.0102997
-6.54928e-05
0.0103217
-6.6715e-05
0.0103465
-6.42115e-05
0.0103694
-6.64667e-05
0.0103938
-6.34777e-05
0.0104176
-6.40071e-05
0.0104417
-6.37148e-05
0.0104658
-5.97768e-05
0.01049
-6.3328e-05
0.0105142
-5.53803e-05
0.0105383
-6.03879e-05
0.0105627
-5.1571e-05
0.0105861
-5.4691e-05
0.0106112
-4.74269e-05
0.0106335
-4.73787e-05
0.0106592
-4.15163e-05
0.0106809
-3.91554e-05
0.0107063
-3.32268e-05
0.0107286
-2.98446e-05
0.0107522
-2.25835e-05
0.0107761
-1.87136e-05
0.0107977
-9.66745e-06
0.0108228
-4.83563e-06
0.0108437
4.87569e-06
0.0108683
1.32442e-05
0.0108901
2.09189e-05
0.0109137
3.51739e-05
0.010936
4.12489e-05
0.01096
5.84859e-05
0.0109819
6.81997e-05
0.0110075
8.37225e-05
0.011029
0.000100307
0.0110559
0.000115309
0.0110787
0.000134727
0.0111059
0.000155066
0.0111313
0.000175024
0.0111595
0.000198517
0.0111869
0.000226806
0.0112187
0.00024681
0.0112466
0.000286018
0.0112834
0.000309417
0.0113138
0.000349199
0.0113539
0.000386475
0.0113894
0.000426174
0.0114335
0.000473269
0.0114733
0.000522249
0.0115248
0.000577426
0.0115683
0.000637368
0.0116281
0.000705178
0.0116773
0.000781926
0.0117454
0.000861227
0.0118017
0.000964805
0.0118778
0.00106256
0.0119428
0.0011948
0.0120215
0.00132684
0.0120945
0.00149443
0.0121702
0.00167082
0.0122421
0.00188422
0.0122985
0.00212422
0.0123518
0.00238389
0.0123752
0.00268815
0.0123693
0.00301828
0.0123538
0.00337093
0.00379569
0.0122296
0.0100022
-7.83743e-06
0.0100093
-2.32891e-05
0.0100204
-3.77162e-05
0.0100353
-5.0883e-05
0.0100526
-6.05949e-05
0.0100714
-6.90942e-05
0.0100906
-7.23496e-05
0.0101109
-7.78835e-05
0.0101306
-7.73507e-05
0.0101518
-8.1748e-05
0.0101728
-8.14983e-05
0.0101949
-8.44242e-05
0.0102178
-8.64661e-05
0.0102398
-8.61612e-05
0.0102642
-8.99237e-05
0.0102861
-8.74976e-05
0.0103111
-9.05605e-05
0.0103334
-8.89767e-05
0.0103583
-8.91165e-05
0.0103816
-8.97814e-05
0.0104059
-8.77917e-05
0.0104304
-8.8486e-05
0.0104542
-8.74895e-05
0.0104794
-8.50199e-05
0.010503
-8.68794e-05
0.0105284
-8.07713e-05
0.0105521
-8.41272e-05
0.0105772
-7.66131e-05
0.0106012
-7.87313e-05
0.010626
-7.2211e-05
0.0106497
-7.11227e-05
0.010675
-6.67429e-05
0.0106977
-6.19162e-05
0.0107235
-5.90406e-05
0.0107459
-5.22276e-05
0.0107708
-4.74913e-05
0.0107949
-4.27672e-05
0.010817
-3.17641e-05
0.0108438
-3.17029e-05
0.0108633
-1.46103e-05
0.0108914
-1.47994e-05
0.0109114
9.10586e-07
0.0109379
8.66001e-06
0.0109599
1.92268e-05
0.0109857
3.27463e-05
0.0110079
4.59987e-05
0.0110359
5.5718e-05
0.0110569
7.92337e-05
0.0110866
8.56167e-05
0.0111105
0.00011084
0.0111378
0.000127766
0.0111681
0.000144708
0.0111938
0.00017282
0.0112276
0.000193035
0.0112576
0.000216778
0.0112912
0.000252426
0.0113278
0.000272803
0.0113635
0.000313533
0.0114048
0.000345179
0.0114457
0.000385254
0.0114921
0.000426936
0.0115389
0.000475393
0.011592
0.000524336
0.0116477
0.000581664
0.0117057
0.000647175
0.0117757
0.00071196
0.0118393
0.000797628
0.0119243
0.000879767
0.0119965
0.000990329
0.0120974
0.00109397
0.0121791
0.0012451
0.0122897
0.00138385
0.012383
0.00157752
0.0124852
0.00178197
0.0125875
0.00202192
0.012653
0.00231845
0.0127344
0.00260676
0.0127482
0.00300443
0.0127442
0.00337491
0.00384173
0.0126982
0.0100028
-1.06119e-05
0.0100119
-3.23953e-05
0.0100255
-5.13246e-05
0.0100432
-6.85839e-05
0.0100627
-8.00677e-05
0.0100829
-8.93106e-05
0.0101027
-9.22041e-05
0.0101234
-9.85928e-05
0.0101433
-9.71607e-05
0.0101653
-0.000103751
0.0101864
-0.000102673
0.0102097
-0.000107741
0.0102324
-0.000109137
0.0102558
-0.000109507
0.0102797
-0.000113825
0.0103026
-0.000110439
0.0103272
-0.000115126
0.0103503
-0.000112077
0.010375
-0.000113832
0.0103988
-0.000113635
0.0104234
-0.000112377
0.0104481
-0.000113145
0.0104724
-0.000111843
0.0104978
-0.000110343
0.0105218
-0.000110913
0.0105476
-0.000106555
0.0105715
-0.00010801
0.0105972
-0.000102363
0.0106213
-0.000102828
0.0106468
-9.77244e-05
0.0106706
-9.49004e-05
0.010697
-9.31787e-05
0.0107188
-8.36737e-05
0.0107477
-8.79008e-05
0.0107668
-7.13662e-05
0.0107971
-7.77918e-05
0.0108163
-6.19372e-05
0.0108443
-5.97653e-05
0.0108673
-5.47538e-05
0.0108906
-3.78823e-05
0.0109178
-4.20571e-05
0.010939
-2.02821e-05
0.0109655
-1.78511e-05
0.0109908
-6.00957e-06
0.0110128
1.07455e-05
0.0110426
1.6166e-05
0.0110644
3.3979e-05
0.0110933
5.02503e-05
0.011119
5.99174e-05
0.0111475
8.23411e-05
0.0111742
0.000101103
0.011208
0.000110884
0.0112325
0.000148343
0.0112727
0.000152878
0.0112982
0.000191273
0.0113422
0.000208416
0.0113719
0.000243069
0.0114203
0.000265144
0.0114542
0.000311257
0.01151
0.00032946
0.0115467
0.000390281
0.0116141
0.000407968
0.0116552
0.000483257
0.0117321
0.000504737
0.0117851
0.000594134
0.0118708
0.00062632
0.0119396
0.000728758
0.012035
0.000784428
0.0121283
0.00089698
0.0122321
0.000990197
0.0123528
0.00112438
0.0124694
0.00126725
0.0126114
0.00143557
0.0127412
0.00165213
0.0128723
0.00189088
0.0130208
0.00216991
0.0130883
0.00253922
0.0132178
0.00287493
0.0132008
0.00339191
0.00383987
0.0132027
0.0100043
-1.49317e-05
0.0100165
-4.4534e-05
0.0100352
-7.00181e-05
0.0100563
-8.97497e-05
0.0100786
-0.000102312
0.0100993
-0.000110051
0.01012
-0.000112875
0.0101406
-0.000119258
0.0101615
-0.000118044
0.0101843
-0.000126501
0.0102064
-0.000124758
0.0102305
-0.000131933
0.0102535
-0.000132118
0.0102779
-0.000133828
0.0103014
-0.000137387
0.0103254
-0.000134414
0.0103495
-0.000139213
0.0103735
-0.000136128
0.0103981
-0.000138407
0.0104224
-0.000137955
0.0104475
-0.00013748
0.0104719
-0.000137485
0.0104974
-0.000137379
0.0105219
-0.000134802
0.0105472
-0.000136292
0.0105722
-0.000131558
0.0105972
-0.000132978
0.0106222
-0.000127398
0.0106479
-0.000128435
0.0106715
-0.000121378
0.0106986
-0.000121985
0.0107211
-0.000115687
0.0107479
-0.000110468
0.0107721
-0.000112097
0.0107956
-9.48985e-05
0.0108233
-0.000105484
0.0108439
-8.24927e-05
0.0108724
-8.83159e-05
0.0108945
-7.68721e-05
0.0109192
-6.25759e-05
0.0109464
-6.91798e-05
0.0109668
-4.07561e-05
0.0109961
-4.71541e-05
0.0110183
-2.81423e-05
0.0110449
-1.58446e-05
0.0110711
-1.00757e-05
0.0110972
7.89767e-06
0.011123
2.44388e-05
0.0111542
2.87224e-05
0.0111774
5.90883e-05
0.0112134
6.51037e-05
0.0112382
8.61426e-05
0.0112758
0.000110751
0.0113052
0.000123418
0.0113438
0.000152686
0.0113801
0.000172083
0.011421
0.000202218
0.0114623
0.00022382
0.0115122
0.000261403
0.011554
0.000287651
0.0116162
0.000328116
0.0116625
0.000361661
0.0117381
0.000407641
0.0117872
0.000455595
0.0118834
0.000497918
0.0119412
0.000568595
0.0120502
0.000619751
0.0121324
0.000702223
0.0122524
0.000776914
0.0123721
0.000870487
0.0124989
0.000997604
0.012671
0.00109518
0.0128076
0.00129893
0.0130203
0.00143951
0.0131713
0.00173984
0.0133879
0.00195328
0.0135319
0.00239529
0.0136784
0.0027284
0.0138118
0.00325847
0.00387169
0.01378
0.0100069
-2.18759e-05
0.0100267
-6.43088e-05
0.0100519
-9.52234e-05
0.0100771
-0.000114935
0.0101007
-0.000125941
0.0101227
-0.00013203
0.0101439
-0.00013403
0.0101651
-0.000140496
0.0101875
-0.000140465
0.0102111
-0.000150072
0.0102349
-0.000148532
0.0102595
-0.000156581
0.0102828
-0.000155442
0.0103078
-0.000158755
0.0103303
-0.000159879
0.0103556
-0.000159784
0.0103778
-0.000161392
0.0104035
-0.000161825
0.010426
-0.000160925
0.0104514
-0.000163347
0.0104747
-0.000160746
0.0104993
-0.000162066
0.0105232
-0.000161285
0.0105472
-0.000158805
0.010571
-0.000160155
0.010595
-0.000155491
0.0106185
-0.000156532
0.010642
-0.000150825
0.0106662
-0.000152644
0.0106879
-0.000143077
0.0107134
-0.000147486
0.0107339
-0.0001362
0.0107585
-0.000135091
0.0107813
-0.000134938
0.0108011
-0.000114667
0.0108295
-0.000133826
0.0108432
-9.62678e-05
0.0108757