/*--------------------------------*- C++ -*----------------------------------*\
| =========                 |                                                 |
| \\      /  F ield         | OpenFOAM: The Open Source CFD Toolbox           |
|  \\    /   O peration     | Version:  2306                                  |
|   \\  /    A nd           | Website:  www.openfoam.com                      |
|    \\/     M anipulation  |                                                 |
\*---------------------------------------------------------------------------*/
FoamFile
{
    version     2.0;
    format      ascii;
    arch        "LSB;label=32;scalar=64";
    class       volVectorField;
    location    "0.25";
    object      U;
}
// * * * * * * * * * * * * * * * * * * * * * * * * * * * * * * * * * * * * * //

dimensions      [0 1 -1 0 0 0 0];

internalField   nonuniform List<vector> 
4400
(
(9.9018 0.04551 0)
(9.80628 0.0987146 0)
(9.70009 0.12097 0)
(9.57017 0.125778 0)
(9.41816 0.124498 0)
(9.25219 0.123444 0)
(9.08056 0.124147 0)
(8.90827 0.125682 0)
(8.73718 0.126977 0)
(8.56791 0.12742 0)
(8.39999 0.126856 0)
(8.2335 0.125566 0)
(8.06781 0.12374 0)
(7.9034 0.12177 0)
(7.73982 0.119625 0)
(7.57777 0.117576 0)
(7.41685 0.115381 0)
(7.25771 0.113304 0)
(7.1 0.111017 0)
(6.94427 0.108818 0)
(6.79018 0.106411 0)
(6.63821 0.104068 0)
(6.48801 0.101593 0)
(6.34009 0.099132 0)
(6.194 0.0966444 0)
(6.05038 0.0940997 0)
(5.90855 0.0916424 0)
(5.76937 0.0890785 0)
(5.6319 0.0866813 0)
(5.49722 0.0841497 0)
(5.3642 0.0818432 0)
(5.23393 0.0794382 0)
(5.10533 0.0772555 0)
(4.9791 0.075002 0)
(4.8548 0.072969 0)
(4.73204 0.0709475 0)
(4.61164 0.0691823 0)
(4.4916 0.0674598 0)
(4.37435 0.0661013 0)
(4.25606 0.0647992 0)
(4.14082 0.0640592 0)
(4.02303 0.0633116 0)
(3.90829 0.0633706 0)
(3.78942 0.0632978 0)
(3.67332 0.0642956 0)
(3.55131 0.0650478 0)
(3.43149 0.0670686 0)
(3.3037 0.0688285 0)
(3.17731 0.071939 0)
(3.04052 0.0748953 0)
(2.90414 0.0791693 0)
(2.75456 0.0834408 0)
(2.60423 0.0889473 0)
(2.43764 0.0945108 0)
(2.26896 0.101205 0)
(2.08092 0.107749 0)
(1.88947 0.115263 0)
(1.67589 0.121972 0)
(1.45808 0.129258 0)
(1.21625 0.134494 0)
(0.970673 0.139227 0)
(0.700702 0.139607 0)
(0.428723 0.134226 0)
(0.148787 0.103335 0)
(-0.0980809 0.049509 0)
(-0.34648 -0.0338282 0)
(-0.520631 -0.123437 0)
(-0.642781 -0.232933 0)
(-0.64822 -0.352149 0)
(-0.595967 -0.490879 0)
(-0.392816 -0.612468 0)
(-0.146386 -0.70353 0)
(0.143868 -0.57733 0)
(0.308522 -0.258514 0)
(0.444083 0.445558 0)
(-0.300202 0.881894 0)
(-0.420269 0.295168 0)
(-0.0369967 -0.0353429 0)
(0.268262 -0.0609378 0)
(0.0250424 -0.175135 0)
(10.0004 0.0611907 0)
(10.0317 0.137472 0)
(10.0697 0.173634 0)
(10.1049 0.184912 0)
(10.1326 0.186199 0)
(10.15 0.186183 0)
(10.1589 0.188341 0)
(10.161 0.191884 0)
(10.159 0.195997 0)
(10.154 0.199025 0)
(10.1465 0.201203 0)
(10.137 0.20192 0)
(10.1251 0.202232 0)
(10.1107 0.201743 0)
(10.0941 0.201373 0)
(10.0745 0.20067 0)
(10.0533 0.200099 0)
(10.0287 0.199356 0)
(10.0034 0.198598 0)
(9.97415 0.197632 0)
(9.94513 0.19669 0)
(9.91172 0.195371 0)
(9.87913 0.19432 0)
(9.84193 0.19267 0)
(9.80585 0.191537 0)
(9.76516 0.189658 0)
(9.72571 0.188432 0)
(9.68164 0.186463 0)
(9.63904 0.185117 0)
(9.59148 0.183212 0)
(9.54612 0.181696 0)
(9.49474 0.180076 0)
(9.447 0.178347 0)
(9.3913 0.177193 0)
(9.34138 0.175286 0)
(9.28103 0.174727 0)
(9.2287 0.172859 0)
(9.16348 0.172982 0)
(9.10804 0.171408 0)
(9.0378 0.17236 0)
(8.97815 0.17136 0)
(8.90257 0.173381 0)
(8.8373 0.173301 0)
(8.75576 0.176666 0)
(8.68336 0.177942 0)
(8.59455 0.182985 0)
(8.51349 0.186038 0)
(8.41528 0.193189 0)
(8.32387 0.198398 0)
(8.21335 0.208137 0)
(8.10944 0.215948 0)
(7.9831 0.228715 0)
(7.86377 0.239529 0)
(7.71761 0.255757 0)
(7.57895 0.269758 0)
(7.40855 0.289763 0)
(7.2456 0.306777 0)
(7.04618 0.330384 0)
(6.8532 0.349592 0)
(6.61964 0.375645 0)
(6.39078 0.394787 0)
(6.11784 0.420066 0)
(5.8476 0.43378 0)
(5.53122 0.450514 0)
(5.22233 0.446866 0)
(4.87369 0.445235 0)
(4.5111 0.410382 0)
(4.10356 0.380537 0)
(3.64825 0.317393 0)
(3.12639 0.28083 0)
(2.46577 0.210219 0)
(1.65593 0.221083 0)
(0.624698 0.150681 0)
(-0.0809915 0.00104943 0)
(-0.483651 0.072318 0)
(-0.428074 -0.0475608 0)
(-0.102593 -0.650511 0)
(-0.413253 -0.783639 0)
(-0.265799 0.00241868 0)
(-0.338472 0.617382 0)
(9.99997 0.0267203 0)
(10.017 0.0698546 0)
(10.0425 0.099867 0)
(10.0751 0.117517 0)
(10.1077 0.126854 0)
(10.14 0.131816 0)
(10.1663 0.135969 0)
(10.1919 0.140258 0)
(10.2118 0.14543 0)
(10.2341 0.150291 0)
(10.2521 0.15499 0)
(10.2744 0.158617 0)
(10.292 0.161757 0)
(10.3144 0.164092 0)
(10.3309 0.166049 0)
(10.3525 0.167956 0)
(10.3675 0.169218 0)
(10.3877 0.171182 0)
(10.4008 0.171936 0)
(10.4196 0.173879 0)
(10.4309 0.174272 0)
(10.4482 0.175928 0)
(10.4576 0.176196 0)
(10.4734 0.177363 0)
(10.4806 0.177759 0)
(10.4948 0.178305 0)
(10.4997 0.179066 0)
(10.512 0.178941 0)
(10.5144 0.180184 0)
(10.5243 0.17953 0)
(10.5246 0.181144 0)
(10.5315 0.180406 0)
(10.5299 0.182102 0)
(10.5329 0.181816 0)
(10.5297 0.183446 0)
(10.5283 0.183933 0)
(10.5233 0.185792 0)
(10.5172 0.187049 0)
(10.5096 0.18972 0)
(10.4992 0.191628 0)
(10.4877 0.195862 0)
(10.4735 0.198342 0)
(10.4563 0.205018 0)
(10.4391 0.20808 0)
(10.4144 0.218004 0)
(10.3943 0.222162 0)
(10.3606 0.235607 0)
(10.3368 0.242091 0)
(10.2933 0.258855 0)
(10.2643 0.269198 0)
(10.2098 0.289216 0)
(10.1734 0.304685 0)
(10.1072 0.328313 0)
(10.0607 0.349664 0)
(9.98109 0.377592 0)
(9.92168 0.404924 0)
(9.82612 0.43796 0)
(9.75064 0.470417 0)
(9.63579 0.508689 0)
(9.5399 0.544266 0)
(9.40188 0.585729 0)
(9.27902 0.620275 0)
(9.11283 0.659292 0)
(8.95312 0.684748 0)
(8.75068 0.711551 0)
(8.54063 0.718147 0)
(8.28311 0.726305 0)
(7.99126 0.71557 0)
(7.65938 0.722312 0)
(7.25637 0.728743 0)
(6.82742 0.783173 0)
(6.28476 0.854413 0)
(5.75249 0.97224 0)
(5.06524 0.972928 0)
(4.50639 0.888777 0)
(3.47612 0.730793 0)
(2.79509 0.458783 0)
(1.36746 0.272106 0)
(-0.0750851 -0.109646 0)
(-0.330874 -0.153195 0)
(9.99869 0.0188285 0)
(10.0116 0.0527359 0)
(10.0259 0.080624 0)
(10.0529 0.101243 0)
(10.0759 0.114773 0)
(10.1074 0.123041 0)
(10.1293 0.128506 0)
(10.1587 0.132387 0)
(10.1768 0.136497 0)
(10.2041 0.140084 0)
(10.2207 0.144228 0)
(10.2483 0.14727 0)
(10.2654 0.150586 0)
(10.2939 0.152511 0)
(10.3117 0.154731 0)
(10.3406 0.155969 0)
(10.3585 0.157413 0)
(10.3872 0.158554 0)
(10.4048 0.15957 0)
(10.4333 0.160655 0)
(10.4504 0.161649 0)
(10.4787 0.162275 0)
(10.4951 0.163717 0)
(10.5234 0.163477 0)
(10.5388 0.165725 0)
(10.567 0.164464 0)
(10.5811 0.167693 0)
(10.609 0.165466 0)
(10.6216 0.169679 0)
(10.649 0.166765 0)
(10.6601 0.171748 0)
(10.6865 0.168772 0)
(10.696 0.174 0)
(10.721 0.171845 0)
(10.729 0.176769 0)
(10.7521 0.176273 0)
(10.7586 0.180646 0)
(10.7792 0.182411 0)
(10.7845 0.186224 0)
(10.8018 0.19083 0)
(10.8058 0.194231 0)
(10.8195 0.202193 0)
(10.8221 0.205741 0)
(10.8319 0.217009 0)
(10.8326 0.222063 0)
(10.8383 0.23604 0)
(10.8366 0.244473 0)
(10.8381 0.260489 0)
(10.8333 0.274219 0)
(10.8307 0.291794 0)
(10.8217 0.312721 0)
(10.815 0.331657 0)
(10.8012 0.361118 0)
(10.7893 0.382293 0)
(10.7713 0.420132 0)
(10.7515 0.445548 0)
(10.731 0.490482 0)
(10.6992 0.521711 0)
(10.6773 0.572137 0)
(10.6291 0.609042 0)
(10.6046 0.662381 0)
(10.5348 0.702703 0)
(10.5026 0.754612 0)
(10.4034 0.793484 0)
(10.352 0.839187 0)
(10.2117 0.872552 0)
(10.1211 0.914226 0)
(9.92632 0.9514 0)
(9.77633 1.00329 0)
(9.51653 1.06661 0)
(9.28988 1.14803 0)
(8.95641 1.25351 0)
(8.64254 1.34687 0)
(8.21511 1.43947 0)
(7.78062 1.46031 0)
(7.22526 1.50129 0)
(6.59682 1.48341 0)
(5.88666 1.52635 0)
(4.97265 1.56499 0)
(3.82518 1.38523 0)
(9.99861 0.0134696 0)
(10.0083 0.0383452 0)
(10.018 0.0605584 0)
(10.0384 0.0777408 0)
(10.0569 0.0907558 0)
(10.0831 0.0985979 0)
(10.1041 0.104842 0)
(10.1306 0.107707 0)
(10.1503 0.112002 0)
(10.1754 0.113645 0)
(10.1941 0.118152 0)
(10.2192 0.119424 0)
(10.2382 0.123838 0)
(10.2641 0.124361 0)
(10.2841 0.128059 0)
(10.3105 0.12802 0)
(10.331 0.130821 0)
(10.3577 0.130924 0)
(10.3781 0.132795 0)
(10.4049 0.133545 0)
(10.4249 0.134582 0)
(10.4522 0.135967 0)
(10.4714 0.136477 0)
(10.4993 0.138133 0)
(10.5174 0.138583 0)
(10.5462 0.140094 0)
(10.5625 0.141017 0)
(10.5923 0.141968 0)
(10.6068 0.143899 0)
(10.6371 0.144041 0)
(10.6502 0.14731 0)
(10.6799 0.146804 0)
(10.6925 0.151244 0)
(10.7204 0.150725 0)
(10.7331 0.155979 0)
(10.7584 0.156205 0)
(10.772 0.162034 0)
(10.7934 0.163611 0)
(10.8089 0.169993 0)
(10.8248 0.1735 0)
(10.8434 0.180645 0)
(10.8531 0.186458 0)
(10.8745 0.195001 0)
(10.8783 0.203079 0)
(10.902 0.214166 0)
(10.9 0.224386 0)
(10.9258 0.239013 0)
(10.918 0.252083 0)
(10.946 0.270242 0)
(10.932 0.288045 0)
(10.9628 0.309281 0)
(10.9421 0.333354 0)
(10.976 0.358567 0)
(10.9495 0.388519 0)
(10.9845 0.420326 0)
(10.9553 0.454763 0)
(10.9881 0.495016 0)
(10.9588 0.533688 0)
(10.9869 0.581592 0)
(10.9581 0.625287 0)
(10.9779 0.678085 0)
(10.9499 0.72719 0)
(10.9535 0.780729 0)
(10.9244 0.836516 0)
(10.9028 0.885921 0)
(10.8628 0.953481 0)
(10.8091 1.00042 0)
(10.7438 1.08766 0)
(10.6513 1.14533 0)
(10.5468 1.25684 0)
(10.412 1.34269 0)
(10.2514 1.4748 0)
(10.0795 1.58993 0)
(9.83082 1.71676 0)
(9.63151 1.83797 0)
(9.23489 1.92752 0)
(9.00179 2.04011 0)
(8.35641 2.08054 0)
(8.04603 2.1727 0)
(7.03676 2.15948 0)
(9.99979 0.00994499 0)
(10.0053 0.0276859 0)
(10.0149 0.0451028 0)
(10.0289 0.0584492 0)
(10.0464 0.0702865 0)
(10.0665 0.0772499 0)
(10.088 0.0839075 0)
(10.1104 0.0864133 0)
(10.1318 0.0908629 0)
(10.1547 0.0917517 0)
(10.1749 0.0959963 0)
(10.1986 0.0966207 0)
(10.2181 0.100768 0)
(10.2432 0.101198 0)
(10.2627 0.104551 0)
(10.2891 0.105054 0)
(10.3089 0.106989 0)
(10.3358 0.108384 0)
(10.3558 0.10846 0)
(10.3825 0.111518 0)
(10.4029 0.109685 0)
(10.4291 0.114494 0)
(10.4501 0.111201 0)
(10.4754 0.117189 0)
(10.497 0.113234 0)
(10.5215 0.119636 0)
(10.5434 0.115917 0)
(10.567 0.121871 0)
(10.5889 0.119517 0)
(10.6116 0.124024 0)
(10.6338 0.124287 0)
(10.6544 0.126559 0)
(10.6779 0.130037 0)
(10.6953 0.130271 0)
(10.7206 0.136736 0)
(10.7347 0.135776 0)
(10.7611 0.144887 0)
(10.7724 0.143365 0)
(10.7992 0.155021 0)
(10.808 0.153899 0)
(10.8352 0.167299 0)
(10.8413 0.168585 0)
(10.8686 0.18219 0)
(10.8721 0.188079 0)
(10.8997 0.201162 0)
(10.9002 0.212612 0)
(10.9285 0.22604 0)
(10.9257 0.242725 0)
(10.9548 0.258477 0)
(10.9498 0.279659 0)
(10.9784 0.299597 0)
(10.9728 0.325596 0)
(11.0001 0.349897 0)
(10.9951 0.382887 0)
(11.0204 0.410344 0)
(11.0185 0.452309 0)
(11.0379 0.483396 0)
(11.0448 0.533002 0)
(11.0526 0.570385 0)
(11.0713 0.625459 0)
(11.0667 0.669385 0)
(11.0919 0.730177 0)
(11.0775 0.780608 0)
(11.101 0.844763 0)
(11.0767 0.90846 0)
(11.0888 0.97245 0)
(11.0555 1.05781 0)
(11.0401 1.12725 0)
(11.004 1.23767 0)
(10.9402 1.32544 0)
(10.9132 1.46084 0)
(10.7765 1.57815 0)
(10.7765 1.73046 0)
(10.5402 1.88086 0)
(10.5738 2.02223 0)
(10.2156 2.20397 0)
(10.2372 2.28974 0)
(9.75216 2.5146 0)
(9.64408 2.51442 0)
(9.09672 2.8036 0)
(10.0003 0.00718704 0)
(10.004 0.0199411 0)
(10.0127 0.0326531 0)
(10.024 0.0431744 0)
(10.0391 0.0521495 0)
(10.0571 0.0588918 0)
(10.076 0.0639288 0)
(10.0981 0.0673946 0)
(10.1174 0.0701319 0)
(10.1416 0.0720756 0)
(10.1595 0.074257 0)
(10.1857 0.0759778 0)
(10.2021 0.0780994 0)
(10.2302 0.0796613 0)
(10.2461 0.081518 0)
(10.2754 0.0828 0)
(10.2921 0.0841313 0)
(10.321 0.0854566 0)
(10.3395 0.0859476 0)
(10.3664 0.088021 0)
(10.3879 0.0874484 0)
(10.4113 0.090676 0)
(10.4368 0.0891458 0)
(10.4555 0.0933271 0)
(10.4859 0.091351 0)
(10.4995 0.0960014 0)
(10.5341 0.0941667 0)
(10.5437 0.0987916 0)
(10.5807 0.0978295 0)
(10.5881 0.101792 0)
(10.6257 0.102784 0)
(10.632 0.105143 0)
(10.6691 0.109135 0)
(10.6751 0.109528 0)
(10.7107 0.116719 0)
(10.7172 0.115869 0)
(10.7502 0.125674 0)
(10.7578 0.124554 0)
(10.788 0.136789 0)
(10.7962 0.135951 0)
(10.8244 0.150604 0)
(10.8322 0.151079 0)
(10.8592 0.167275 0)
(10.8661 0.171095 0)
(10.892 0.187746 0)
(10.8983 0.19651 0)
(10.9226 0.213488 0)
(10.9292 0.2283 0)
(10.9511 0.245393 0)
(10.9598 0.268025 0)
(10.9771 0.285005 0)
(10.9911 0.315891 0)
(11.0016 0.335386 0)
(11.0228 0.371947 0)
(11.0264 0.398015 0)
(11.0544 0.438605 0)
(11.0533 0.472265 0)
(11.0856 0.517598 0)
(11.0822 0.560376 0)
(11.117 0.606628 0)
(11.1107 0.665674 0)
(11.1474 0.706749 0)
(11.1371 0.786202 0)
(11.171 0.824929 0)
(11.1593 0.922574 0)
(11.1794 0.966848 0)
(11.1731 1.08262 0)
(11.1623 1.14127 0)
(11.1727 1.2754 0)
(11.1117 1.362 0)
(11.1494 1.51059 0)
(11.0261 1.64085 0)
(11.0923 1.79231 0)
(10.9091 1.97853 0)
(10.9823 2.11142 0)
(10.7574 2.35282 0)
(10.7811 2.44754 0)
(10.5367 2.73608 0)
(10.4432 2.7927 0)
(10.1822 3.09037 0)
(10.0002 0.00487724 0)
(10.0038 0.0136102 0)
(10.0108 0.0221587 0)
(10.0218 0.0299995 0)
(10.0342 0.0358304 0)
(10.0519 0.0418577 0)
(10.0679 0.0446711 0)
(10.0904 0.0487305 0)
(10.1074 0.0495638 0)
(10.1327 0.0523259 0)
(10.1491 0.052892 0)
(10.1763 0.0549285 0)
(10.1918 0.0561713 0)
(10.2204 0.05718 0)
(10.2359 0.0594774 0)
(10.2648 0.0590597 0)
(10.2822 0.0623975 0)
(10.3092 0.0607159 0)
(10.3304 0.0646295 0)
(10.3534 0.0625904 0)
(10.3799 0.0664257 0)
(10.3971 0.0649187 0)
(10.43 0.0681973 0)
(10.4402 0.0677185 0)
(10.4803 0.0701644 0)
(10.4832 0.0711644 0)
(10.5295 0.0723088 0)
(10.527 0.0754077 0)
(10.5767 0.0749519 0)
(10.5719 0.0803647 0)
(10.6214 0.0787822 0)
(10.6171 0.0858276 0)
(10.6644 0.0841995 0)
(10.6615 0.0923147 0)
(10.7061 0.0911707 0)
(10.7049 0.10063 0)
(10.7461 0.0998624 0)
(10.7471 0.110943 0)
(10.7845 0.111406 0)
(10.7878 0.123129 0)
(10.8213 0.126792 0)
(10.8268 0.13799 0)
(10.8564 0.145766 0)
(10.8644 0.157565 0)
(10.8901 0.168086 0)
(10.9001 0.183069 0)
(10.9234 0.195271 0)
(10.9336 0.214315 0)
(10.9566 0.229572 0)
(10.9661 0.25203 0)
(10.9891 0.271745 0)
(10.9987 0.29837 0)
(11.0221 0.322378 0)
(11.0311 0.354254 0)
(11.0569 0.384379 0)
(11.0648 0.418914 0)
(11.0915 0.460304 0)
(11.1026 0.49386 0)
(11.1255 0.549382 0)
(11.1423 0.583037 0)
(11.1621 0.651564 0)
(11.1791 0.688611 0)
(11.2015 0.770356 0)
(11.2102 0.813422 0)
(11.2412 0.910233 0)
(11.2297 0.963451 0)
(11.2787 1.07753 0)
(11.232 1.14888 0)
(11.3067 1.27865 0)
(11.2159 1.38363 0)
(11.314 1.52334 0)
(11.1823 1.67596 0)
(11.2921 1.82029 0)
(11.1292 2.02831 0)
(11.2325 2.166 0)
(11.0473 2.42754 0)
(11.122 2.55794 0)
(10.9139 2.83991 0)
(10.932 2.99355 0)
(10.7035 3.22962 0)
(10.0004 0.00278059 0)
(10.0035 0.00799673 0)
(10.01 0.0129329 0)
(10.0203 0.0178173 0)
(10.0315 0.0210369 0)
(10.0486 0.0252811 0)
(10.0633 0.0265607 0)
(10.0853 0.0297783 0)
(10.1017 0.0297994 0)
(10.1265 0.0320239 0)
(10.1436 0.0322332 0)
(10.1694 0.0334895 0)
(10.1867 0.0347354 0)
(10.2127 0.0346398 0)
(10.2315 0.0375121 0)
(10.2562 0.0355698 0)
(10.2782 0.0403141 0)
(10.2999 0.0364403 0)
(10.3268 0.0426778 0)
(10.3437 0.0378326 0)
(10.3765 0.0445091 0)
(10.3875 0.0400862 0)
(10.4266 0.0461313 0)
(10.431 0.0431315 0)
(10.4768 0.0479112 0)
(10.4742 0.0470532 0)
(10.5265 0.0497552 0)
(10.5179 0.0522776 0)
(10.5744 0.0517274 0)
(10.5627 0.0588164 0)
(10.6202 0.0547169 0)
(10.608 0.0657988 0)
(10.664 0.0600112 0)
(10.6533 0.072967 0)
(10.706 0.0679024 0)
(10.6984 0.0814325 0)
(10.7458 0.0776789 0)
(10.7433 0.0923537 0)
(10.7837 0.0897115 0)
(10.7868 0.105725 0)
(10.8209 0.105383 0)
(10.8281 0.121429 0)
(10.8576 0.125611 0)
(10.8682 0.140253 0)
(10.8928 0.150817 0)
(10.9077 0.16359 0)
(10.9275 0.181017 0)
(10.9451 0.193534 0)
(10.9639 0.215831 0)
(10.9803 0.232211 0)
(11.0014 0.256463 0)
(11.0168 0.279279 0)
(11.0375 0.306516 0)
(11.0567 0.334005 0)
(11.0745 0.367138 0)
(11.0967 0.400192 0)
(11.1166 0.436519 0)
(11.1365 0.48069 0)
(11.1622 0.518284 0)
(11.1782 0.572795 0)
(11.2111 0.618757 0)
(11.2191 0.678119 0)
(11.2643 0.739142 0)
(11.2582 0.804261 0)
(11.3165 0.881788 0)
(11.2965 0.958016 0)
(11.3633 1.05412 0)
(11.3287 1.14788 0)
(11.4025 1.26382 0)
(11.3492 1.38818 0)
(11.43 1.51721 0)
(11.3525 1.68956 0)
(11.4385 1.82841 0)
(11.3353 2.04589 0)
(11.4151 2.211 0)
(11.2944 2.44539 0)
(11.3395 2.65696 0)
(11.2239 2.88503 0)
(11.1806 3.12489 0)
(11.102 3.35514 0)
(10.0009 0.000714458 0)
(10.0029 0.00291486 0)
(10.0101 0.00431936 0)
(10.0191 0.00618245 0)
(10.0308 0.00717846 0)
(10.0465 0.00887264 0)
(10.0619 0.00932551 0)
(10.0821 0.0105127 0)
(10.1 0.0107434 0)
(10.1225 0.0112176 0)
(10.1421 0.0122849 0)
(10.1648 0.0114848 0)
(10.1858 0.0141225 0)
(10.2077 0.0115028 0)
(10.2309 0.016344 0)
(10.251 0.0116117 0)
(10.2777 0.0186418 0)
(10.2947 0.0121226 0)
(10.3261 0.0205232 0)
(10.3389 0.0136052 0)
(10.3754 0.0218145 0)
(10.3835 0.0162454 0)
(10.4249 0.022897 0)
(10.4281 0.0197687 0)
(10.4746 0.0243543 0)
(10.4722 0.0239709 0)
(10.5241 0.0263488 0)
(10.5167 0.0292088 0)
(10.5722 0.0288973 0)
(10.5626 0.0357553 0)
(10.6174 0.0323764 0)
(10.6099 0.0432318 0)
(10.6603 0.0378076 0)
(10.6576 0.0512814 0)
(10.7018 0.0459013 0)
(10.7049 0.0602926 0)
(10.7412 0.0565585 0)
(10.7524 0.0711894 0)
(10.7786 0.0699486 0)
(10.7992 0.0843508 0)
(10.8156 0.0868213 0)
(10.8436 0.100364 0)
(10.8534 0.107054 0)
(10.8859 0.121256 0)
(10.891 0.12995 0)
(10.9279 0.148114 0)
(10.9275 0.157742 0)
(10.9701 0.179105 0)
(10.9643 0.193646 0)
(11.0118 0.215026 0)
(11.0035 0.236087 0)
(11.0521 0.261126 0)
(11.0468 0.2834 0)
(11.091 0.317638 0)
(11.0957 0.341877 0)
(11.1295 0.379485 0)
(11.149 0.416275 0)
(11.1708 0.450615 0)
(11.2051 0.502557 0)
(11.2167 0.538124 0)
(11.2636 0.602917 0)
(11.2668 0.64204 0)
(11.3248 0.72325 0)
(11.3204 0.768417 0)
(11.3871 0.864759 0)
(11.3762 0.926103 0)
(11.4493 1.03592 0)
(11.4296 1.12076 0)
(11.509 1.24926 0)
(11.4786 1.36072 0)
(11.5585 1.51831 0)
(11.5182 1.65495 0)
(11.5924 1.85229 0)
(11.5395 2.01651 0)
(11.5931 2.24858 0)
(11.5409 2.45272 0)
(11.5375 2.70353 0)
(11.5033 2.94338 0)
(11.4085 3.20769 0)
(11.3802 3.45856 0)
(10.0014 -0.00123537 0)
(10.002 -0.00203572 0)
(10.011 -0.0041596 0)
(10.0177 -0.00517997 0)
(10.0323 -0.00655503 0)
(10.045 -0.00725906 0)
(10.0636 -0.00791634 0)
(10.0804 -0.00857114 0)
(10.1018 -0.00843376 0)
(10.121 -0.00934637 0)
(10.1439 -0.00797532 0)
(10.1634 -0.0100602 0)
(10.1875 -0.00709032 0)
(10.2065 -0.0108507 0)
(10.2326 -0.00574419 0)
(10.2502 -0.0113181 0)
(10.2792 -0.00422364 0)
(10.2943 -0.0109722 0)
(10.3275 -0.00313357 0)
(10.339 -0.00904738 0)
(10.3765 -0.00290752 0)
(10.3845 -0.00546086 0)
(10.4253 -0.00294777 0)
(10.4307 -0.00111128 0)
(10.4738 -0.00198234 0)
(10.4769 0.00316113 0)
(10.5221 0.000476143 0)
(10.5235 0.00798117 0)
(10.569 0.00381092 0)
(10.5716 0.0143612 0)
(10.613 0.00783489 0)
(10.6215 0.0220048 0)
(10.6549 0.0139611 0)
(10.6715 0.0299632 0)
(10.696 0.0231893 0)
(10.7205 0.0387163 0)
(10.7363 0.0346714 0)
(10.7691 0.0503535 0)
(10.7751 0.0474809 0)
(10.8173 0.0657253 0)
(10.8138 0.0626901 0)
(10.8632 0.0838747 0)
(10.8539 0.0824989 0)
(10.9068 0.104449 0)
(10.8946 0.107308 0)
(10.9498 0.129453 0)
(10.9359 0.135936 0)
(10.9913 0.161271 0)
(10.9809 0.169011 0)
(11.0299 0.199496 0)
(11.0297 0.209682 0)
(11.0701 0.242929 0)
(11.0777 0.260182 0)
(11.1162 0.293105 0)
(11.1268 0.320593 0)
(11.1637 0.35278 0)
(11.1833 0.391278 0)
(11.2129 0.42444 0)
(11.2433 0.473387 0)
(11.2702 0.511578 0)
(11.3062 0.569333 0)
(11.3311 0.616169 0)
(11.3795 0.68531 0)
(11.3926 0.742141 0)
(11.4592 0.824787 0)
(11.4619 0.898579 0)
(11.5391 0.995946 0)
(11.5373 1.0915 0)
(11.6197 1.2102 0)
(11.616 1.33592 0)
(11.6906 1.47486 0)
(11.6998 1.64384 0)
(11.7415 1.81015 0)
(11.771 2.01665 0)
(11.7681 2.23151 0)
(11.8073 2.46323 0)
(11.7526 2.72491 0)
(11.777 2.99703 0)
(11.6717 3.26111 0)
(11.6413 3.59113 0)
(10.0014 -0.00297997 0)
(10.0019 -0.00739065 0)
(10.0116 -0.0126689 0)
(10.0179 -0.0169745 0)
(10.0342 -0.0203073 0)
(10.0458 -0.0238186 0)
(10.0666 -0.0251798 0)
(10.0819 -0.0279163 0)
(10.1057 -0.0276995 0)
(10.123 -0.0298102 0)
(10.1483 -0.0287163 0)
(10.1656 -0.0310841 0)
(10.1919 -0.0292403 0)
(10.209 -0.0323243 0)
(10.237 -0.0290229 0)
(10.2531 -0.0332996 0)
(10.2838 -0.0281569 0)
(10.2976 -0.033478 0)
(10.3321 -0.0272559 0)
(10.3429 -0.0320143 0)
(10.3808 -0.0270582 0)
(10.3895 -0.0286492 0)
(10.4288 -0.0272965 0)
(10.4375 -0.0241648 0)
(10.4761 -0.0266644 0)
(10.4855 -0.0197149 0)
(10.524 -0.0240062 0)
(10.5331 -0.015351 0)
(10.5716 -0.0194831 0)
(10.5813 -0.010052 0)
(10.6168 -0.0139664 0)
(10.6315 -0.00296286 0)
(10.6597 -0.00721408 0)
(10.6821 0.00556909 0)
(10.7022 0.00195386 0)
(10.7309 0.0149312 0)
(10.7456 0.0143186 0)
(10.7784 0.0253946 0)
(10.7882 0.0300571 0)
(10.8259 0.0377062 0)
(10.8302 0.0491209 0)
(10.8716 0.0533207 0)
(10.8745 0.070169 0)
(10.9139 0.0751106 0)
(10.9214 0.0921648 0)
(10.9555 0.103494 0)
(10.9674 0.118145 0)
(10.9998 0.134878 0)
(11.0128 0.1532 0)
(11.0452 0.169019 0)
(11.0614 0.194826 0)
(11.0914 0.212912 0)
(11.1116 0.239012 0)
(11.1439 0.267767 0)
(11.1617 0.292361 0)
(11.2007 0.327929 0)
(11.2203 0.360412 0)
(11.256 0.396992 0)
(11.2896 0.439443 0)
(11.3172 0.481733 0)
(11.3619 0.532607 0)
(11.3892 0.581858 0)
(11.4419 0.646441 0)
(11.4666 0.703494 0)
(11.532 0.782372 0)
(11.5551 0.85716 0)
(11.6262 0.948584 0)
(11.6551 1.04725 0)
(11.7289 1.1635 0)
(11.7599 1.28094 0)
(11.8359 1.44007 0)
(11.8677 1.58032 0)
(11.9373 1.78382 0)
(11.9636 1.9716 0)
(12.0191 2.20008 0)
(12.0312 2.46794 0)
(12.0448 2.71269 0)
(12.0386 3.03557 0)
(11.9942 3.34615 0)
(11.9091 3.6409 0)
(10.0008 -0.00468439 0)
(10.0031 -0.0133599 0)
(10.0114 -0.0217447 0)
(10.0206 -0.0294355 0)
(10.0359 -0.034802 0)
(10.0502 -0.0408616 0)
(10.0706 -0.0430749 0)
(10.0874 -0.0473432 0)
(10.1117 -0.047406 0)
(10.129 -0.0501118 0)
(10.1551 -0.0500339 0)
(10.1717 -0.0517919 0)
(10.1989 -0.0522168 0)
(10.2157 -0.0533046 0)
(10.2438 -0.0532211 0)
(10.2607 -0.0548141 0)
(10.2904 -0.0527385 0)
(10.3061 -0.0558755 0)
(10.3387 -0.0515856 0)
(10.3521 -0.0552556 0)
(10.3875 -0.0512595 0)
(10.3995 -0.0521438 0)
(10.4352 -0.0518923 0)
(10.4486 -0.0474302 0)
(10.4822 -0.0516647 0)
(10.4981 -0.0429318 0)
(10.5298 -0.048717 0)
(10.5466 -0.0391043 0)
(10.5784 -0.0432015 0)
(10.5945 -0.0347536 0)
(10.6258 -0.0362454 0)
(10.6436 -0.0288079 0)
(10.6715 -0.0277672 0)
(10.6933 -0.0215576 0)
(10.717 -0.0168129 0)
(10.7413 -0.013189 0)
(10.7632 -0.00342336 0)
(10.7881 -0.00222107 0)
(10.8091 0.0110994 0)
(10.8351 0.0131344 0)
(10.8542 0.0269231 0)
(10.8818 0.0318634 0)
(10.8995 0.0468797 0)
(10.9285 0.0521716 0)
(10.9442 0.07235 0)
(10.9774 0.076244 0)
(10.9872 0.100618 0)
(11.0284 0.107266 0)
(11.0336 0.132111 0)
(11.0759 0.143991 0)
(11.088 0.170533 0)
(11.1217 0.186293 0)
(11.1457 0.214434 0)
(11.1744 0.239098 0)
(11.2035 0.264002 0)
(11.2334 0.298241 0)
(11.2685 0.330264 0)
(11.2947 0.360189 0)
(11.3422 0.410717 0)
(11.3661 0.439085 0)
(11.4185 0.498427 0)
(11.4507 0.537609 0)
(11.5061 0.60711 0)
(11.5411 0.650816 0)
(11.6094 0.742626 0)
(11.6455 0.79423 0)
(11.7217 0.904053 0)
(11.766 0.980473 0)
(11.8514 1.10448 0)
(11.8958 1.22369 0)
(11.9932 1.35455 0)
(12.0427 1.5434 0)
(12.1279 1.68804 0)
(12.1945 1.93221 0)
(12.2542 2.14938 0)
(12.3035 2.40944 0)
(12.3533 2.73415 0)
(12.3323 3.01347 0)
(12.3556 3.41819 0)
(12.2643 3.75275 0)
(10.0006 -0.0069516 0)
(10.0039 -0.0197699 0)
(10.0124 -0.0322956 0)
(10.0242 -0.0425882 0)
(10.0395 -0.0509668 0)
(10.0572 -0.0583685 0)
(10.0771 -0.0619419 0)
(10.0971 -0.066859 0)
(10.1203 -0.0673165 0)
(10.1397 -0.0706917 0)
(10.1643 -0.0712148 0)
(10.1828 -0.0730395 0)
(10.2081 -0.0750435 0)
(10.2278 -0.0747008 0)
(10.2526 -0.0775931 0)
(10.2742 -0.0761811 0)
(10.2989 -0.0780287 0)
(10.3206 -0.0775573 0)
(10.3475 -0.0769171 0)
(10.367 -0.0778792 0)
(10.3968 -0.0759736 0)
(10.415 -0.0759986 0)
(10.4446 -0.0759351 0)
(10.4656 -0.0721484 0)
(10.4908 -0.075435 0)
(10.5172 -0.0679127 0)
(10.5378 -0.0723534 0)
(10.567 -0.0643692 0)
(10.587 -0.066214 0)
(10.6152 -0.0607173 0)
(10.6364 -0.0583935 0)
(10.6639 -0.0548643 0)
(10.6841 -0.0505256 0)
(10.7137 -0.0452646 0)
(10.7311 -0.0430538 0)
(10.7626 -0.0319573 0)
(10.7783 -0.0344489 0)
(10.8113 -0.0169042 0)
(10.8243 -0.0211472 0)
(10.8617 -0.00313079 0)
(10.8681 -0.000831568 0)
(10.9124 0.0103003 0)
(10.9138 0.023095 0)
(10.9605 0.030041 0)
(10.9619 0.044552 0)
(11.0103 0.0597023 0)
(11.006 0.0666404 0)
(11.0677 0.0930225 0)
(11.0482 0.0978856 0)
(11.1248 0.125367 0)
(11.1013 0.138615 0)
(11.1743 0.163765 0)
(11.164 0.181191 0)
(11.2301 0.214846 0)
(11.2224 0.227661 0)
(11.2999 0.272787 0)
(11.287 0.287578 0)
(11.3674 0.334802 0)
(11.3705 0.361753 0)
(11.4399 0.40898 0)
(11.457 0.446053 0)
(11.5354 0.502395 0)
(11.5486 0.54416 0)
(11.6414 0.618155 0)
(11.6637 0.660483 0)
(11.7614 0.765401 0)
(11.7888 0.803496 0)
(11.9146 0.945092 0)
(11.9284 1.00147 0)
(12.0842 1.15442 0)
(12.1023 1.28075 0)
(12.2632 1.4216 0)
(12.302 1.64082 0)
(12.4409 1.80708 0)
(12.5062 2.08962 0)
(12.6145 2.34557 0)
(12.6417 2.65887 0)
(12.7577 3.05764 0)
(12.6568 3.37384 0)
(12.7524 3.9183 0)
(10.0012 -0.00940452 0)
(10.0037 -0.0281434 0)
(10.0161 -0.0443198 0)
(10.0281 -0.058408 0)
(10.0474 -0.0685766 0)
(10.0663 -0.0777954 0)
(10.0888 -0.0809469 0)
(10.1102 -0.0875161 0)
(10.1341 -0.0864963 0)
(10.1539 -0.0924049 0)
(10.1787 -0.0915071 0)
(10.1971 -0.0953407 0)
(10.223 -0.0971739 0)
(10.243 -0.0967656 0)
(10.2677 -0.101382 0)
(10.2908 -0.0979891 0)
(10.3138 -0.102466 0)
(10.3387 -0.0999159 0)
(10.3626 -0.101012 0)
(10.3858 -0.101462 0)
(10.4127 -0.0994059 0)
(10.434 -0.100808 0)
(10.4612 -0.0988604 0)
(10.4855 -0.0977748 0)
(10.5074 -0.0982096 0)
(10.5385 -0.0935411 0)
(10.5545 -0.0959042 0)
(10.5895 -0.0887062 0)
(10.6043 -0.0915152 0)
(10.6382 -0.0833385 0)
(10.6549 -0.0845263 0)
(10.6874 -0.0779193 0)
(10.7039 -0.0743515 0)
(10.7377 -0.0719043 0)
(10.7524 -0.0624692 0)
(10.7871 -0.0623272 0)
(10.8014 -0.0516595 0)
(10.8364 -0.046616 0)
(10.8488 -0.0418429 0)
(10.8878 -0.0269809 0)
(10.8947 -0.027983 0)
(10.9383 -0.00869979 0)
(10.945 -0.00579651 0)
(10.9831 0.00846722 0)
(11.0008 0.020037 0)
(11.0286 0.0327808 0)
(11.0519 0.0435678 0)
(11.0861 0.0658951 0)
(11.0942 0.071906 0)
(11.1517 0.0966611 0)
(11.1418 0.115113 0)
(11.2119 0.126256 0)
(11.2015 0.162313 0)
(11.2757 0.171517 0)
(11.26 0.204237 0)
(11.3527 0.231467 0)
(11.3256 0.255295 0)
(11.4283 0.292598 0)
(11.4126 0.323276 0)
(11.5082 0.362908 0)
(11.5054 0.400688 0)
(11.612 0.449453 0)
(11.6061 0.495972 0)
(11.7284 0.545059 0)
(11.7342 0.625609 0)
(11.8581 0.651419 0)
(11.8874 0.78871 0)
(12.0127 0.796143 0)
(12.0717 0.975342 0)
(12.1961 1.01025 0)
(12.2838 1.19302 0)
(12.4304 1.32221 0)
(12.4994 1.48095 0)
(12.7197 1.73494 0)
(12.7232 1.91982 0)
(12.9869 2.27676 0)
(12.9675 2.54762 0)
(13.1631 2.99555 0)
(13.1361 3.42468 0)
(13.1803 3.8631 0)
(10.001 -0.0127973 0)
(10.0052 -0.0388205 0)
(10.0217 -0.0598949 0)
(10.0353 -0.0775351 0)
(10.0607 -0.0895252 0)
(10.08 -0.0990301 0)
(10.1081 -0.102206 0)
(10.1276 -0.109017 0)
(10.1556 -0.107581 0)
(10.1721 -0.115066 0)
(10.2007 -0.113301 0)
(10.2157 -0.119171 0)
(10.2454 -0.119942 0)
(10.2627 -0.120806 0)
(10.2905 -0.125034 0)
(10.3122 -0.12161 0)
(10.3367 -0.126779 0)
(10.3616 -0.123325 0)
(10.386 -0.125703 0)
(10.409 -0.125141 0)
(10.4374 -0.124245 0)
(10.4565 -0.124967 0)
(10.4878 -0.123656 0)
(10.507 -0.122465 0)
(10.5357 -0.122598 0)
(10.5596 -0.119027 0)
(10.5839 -0.119373 0)
(10.6105 -0.115409 0)
(10.6348 -0.113497 0)
(10.6588 -0.111754 0)
(10.6869 -0.104336 0)
(10.7071 -0.108617 0)
(10.7379 -0.0917053 0)
(10.7559 -0.104371 0)
(10.7887 -0.0791459 0)
(10.8042 -0.0934281 0)
(10.839 -0.071611 0)
(10.8542 -0.0726071 0)
(10.8854 -0.0672344 0)
(10.9083 -0.0484549 0)
(10.9296 -0.05534 0)
(10.9605 -0.0315865 0)
(10.9815 -0.0291925 0)
(11.0022 -0.0204797 0)
(11.0443 0.00177465 0)
(11.0417 0.000152317 0)
(11.1016 0.0248116 0)
(11.0986 0.0344584 0)
(11.1439 0.0491234 0)
(11.1682 0.0658738 0)
(11.1931 0.0896681 0)
(11.2271 0.0922586 0)
(11.2617 0.13702 0)
(11.2871 0.131665 0)
(11.3261 0.178601 0)
(11.3715 0.184996 0)
(11.3872 0.229607 0)
(11.4596 0.235577 0)
(11.4778 0.300929 0)
(11.5403 0.289168 0)
(11.5869 0.383959 0)
(11.6439 0.357806 0)
(11.6994 0.475062 0)
(11.7745 0.452513 0)
(11.832 0.56853 0)
(11.9292 0.590252 0)
(11.9841 0.665568 0)
(12.132 0.769972 0)
(12.1541 0.80159 0)
(12.3775 0.966281 0)
(12.3887 1.02841 0)
(12.6399 1.19448 0)
(12.7019 1.35466 0)
(12.9324 1.532 0)
(13.0725 1.81737 0)
(13.248 2.0303 0)
(13.4368 2.5117 0)
(13.5515 2.78376 0)
(13.6919 3.4487 0)
(13.7341 3.89924 0)
(10.0002 -0.0186448 0)
(10.0087 -0.0525663 0)
(10.0305 -0.080658 0)
(10.0482 -0.100535 0)
(10.0821 -0.114498 0)
(10.1011 -0.122821 0)
(10.1371 -0.126697 0)
(10.1519 -0.133312 0)
(10.1862 -0.132642 0)
(10.1973 -0.14169 0)
(10.2305 -0.139593 0)
(10.2426 -0.147537 0)
(10.2748 -0.146995 0)
(10.2914 -0.14945 0)
(10.3201 -0.152512 0)
(10.3415 -0.149949 0)
(10.3668 -0.154532 0)
(10.3904 -0.151574 0)
(10.4157 -0.153795 0)
(10.4373 -0.153173 0)
(10.4655 -0.153076 0)
(10.4842 -0.152234 0)
(10.5136 -0.153247 0)
(10.5339 -0.149215 0)
(10.5585 -0.152013 0)
(10.5851 -0.145996 0)
(10.6032 -0.148511 0)
(10.6342 -0.141203 0)
(10.6505 -0.145143 0)
(10.6793 -0.132772 0)
(10.7 -0.141316 0)
(10.7218 -0.124353 0)
(10.7513 -0.131087 0)
(10.7608 -0.12107 0)
(10.8053 -0.112915 0)
(10.7966 -0.11832 0)
(10.8585 -0.0960499 0)
(10.8371 -0.104279 0)
(10.9011 -0.0893378 0)
(10.8905 -0.0767477 0)
(10.9324 -0.0853262 0)
(10.948 -0.0508317 0)
(10.9714 -0.0663168 0)
(10.989 -0.0376438 0)
(11.0327 -0.0340244 0)
(11.0164 -0.0212106 0)
(11.0966 -0.010339 0)
(11.0621 0.0140616 0)
(11.1392 0.00558279 0)
(11.1301 0.0522151 0)
(11.1843 0.0367979 0)
(11.1901 0.079045 0)
(11.2524 0.0807801 0)
(11.2513 0.112801 0)
(11.3159 0.122561 0)
(11.3439 0.156966 0)
(11.374 0.169941 0)
(11.4436 0.209284 0)
(11.4643 0.216386 0)
(11.5402 0.28298 0)
(11.5734 0.263855 0)
(11.6628 0.365354 0)
(11.6962 0.327761 0)
(11.8049 0.461391 0)
(11.8568 0.410163 0)
(11.9617 0.554163 0)
(12.0627 0.55613 0)
(12.1444 0.634912 0)
(12.3184 0.743418 0)
(12.375 0.759549 0)
(12.629 0.959042 0)
(12.6797 0.966367 0)
(12.99 1.21628 0)
(13.0996 1.2948 0)
(13.3969 1.60409 0)
(13.599 1.79863 0)
(13.8627 2.22337 0)
(14.1025 2.67462 0)
(14.2254 3.17911 0)
(14.4894 3.98855 0)
(10.0002 -0.0259645 0)
(10.0155 -0.0700929 0)
(10.0459 -0.0995213 0)
(10.0711 -0.117574 0)
(10.1137 -0.126332 0)
(10.1332 -0.13212 0)