/*--------------------------------*- C++ -*----------------------------------*\
| =========                 |                                                 |
| \\      /  F ield         | OpenFOAM: The Open Source CFD Toolbox           |
|  \\    /   O peration     | Version:  2306                                  |
|   \\  /    A nd           | Website:  www.openfoam.com                      |
|    \\/     M anipulation  |                                                 |
\*---------------------------------------------------------------------------*/
FoamFile
{
    version     2.0;
    format      ascii;
    arch        "LSB;label=32;scalar=64";
    class       volScalarField;
    location    "0.4";
    object      p;
}
// * * * * * * * * * * * * * * * * * * * * * * * * * * * * * * * * * * * * * //

dimensions      [0 2 -2 0 0 0 0];

internalField   nonuniform List<scalar> 
17600
(
521.801
519.758
517.98
516.75
515.987
515.48
515.063
514.655
514.238
513.814
513.394
512.982
512.578
512.181
511.789
511.403
511.022
510.65
510.288
509.942
509.614
509.306
509.022
508.763
508.53
508.323
508.14
507.981
507.844
507.725
507.622
507.533
507.454
507.383
507.318
507.257
507.199
507.141
507.084
507.026
506.966
506.906
506.844
506.78
506.714
506.647
506.579
506.509
506.439
506.368
506.296
506.223
506.151
506.078
506.006
505.934
505.862
505.791
505.72
505.65
505.581
505.513
505.445
505.379
505.314
505.249
505.187
505.125
505.064
505.005
504.947
504.891
504.836
504.782
504.731
504.68
504.632
504.585
504.539
504.496
504.454
504.415
504.377
504.342
504.308
504.277
504.249
504.222
504.198
504.177
504.159
504.143
504.13
504.121
504.114
504.111
504.111
504.115
504.122
504.133
504.148
504.168
504.191
504.219
504.251
504.288
504.329
504.376
504.427
504.484
504.546
504.613
504.685
504.763
504.847
504.936
505.03
505.13
505.236
505.347
505.463
505.585
505.711
505.842
505.978
506.117
506.261
506.408
506.557
506.709
506.863
507.018
507.173
507.329
507.484
507.638
507.79
507.939
508.086
508.23
508.37
508.506
508.638
508.766
508.888
509.005
509.118
509.226
509.329
509.429
509.524
509.616
509.704
509.788
509.87
509.949
510.026
510.1
510.174
510.246
519.072
518.302
517.376
516.512
515.821
515.299
514.879
514.496
514.116
513.728
513.334
512.939
512.549
512.165
511.786
511.412
511.044
510.685
510.336
510.001
509.682
509.383
509.105
508.849
508.618
508.41
508.226
508.064
507.922
507.799
507.691
507.596
507.512
507.436
507.366
507.3
507.236
507.175
507.114
507.053
506.991
506.928
506.863
506.798
506.731
506.662
506.593
506.522
506.451
506.379
506.306
506.234
506.161
506.088
506.015
505.942
505.87
505.799
505.728
505.658
505.588
505.52
505.452
505.386
505.32
505.256
505.193
505.131
505.071
505.011
504.953
504.897
504.842
504.788
504.736
504.686
504.637
504.59
504.545
504.501
504.46
504.42
504.383
504.347
504.314
504.283
504.254
504.228
504.204
504.183
504.164
504.149
504.136
504.126
504.12
504.117
504.117
504.121
504.129
504.14
504.155
504.175
504.198
504.227
504.259
504.296
504.338
504.385
504.437
504.494
504.556
504.624
504.697
504.776
504.86
504.95
505.045
505.146
505.252
505.364
505.481
505.604
505.731
505.863
505.999
506.14
506.284
506.432
506.582
506.734
506.888
507.043
507.199
507.354
507.508
507.661
507.812
507.96
508.106
508.248
508.387
508.523
508.653
508.78
508.901
509.018
509.129
509.236
509.338
509.437
509.531
509.621
509.708
509.792
509.872
509.951
510.027
510.101
510.173
510.245
517.768
517.419
516.889
516.277
515.685
515.171
514.738
514.358
513.998
513.636
513.268
512.896
512.525
512.157
511.795
511.439
511.09
510.749
510.419
510.101
509.797
509.51
509.241
508.992
508.763
508.555
508.368
508.2
508.051
507.918
507.8
507.695
507.6
507.514
507.434
507.359
507.288
507.219
507.151
507.083
507.016
506.948
506.88
506.812
506.742
506.672
506.601
506.529
506.457
506.384
506.311
506.238
506.165
506.092
506.019
505.946
505.874
505.802
505.731
505.661
505.591
505.523
505.455
505.388
505.323
505.258
505.195
505.133
505.072
505.012
504.954
504.897
504.842
504.788
504.736
504.685
504.636
504.588
504.543
504.499
504.457
504.417
504.379
504.343
504.309
504.277
504.248
504.221
504.197
504.175
504.156
504.14
504.127
504.116
504.109
504.105
504.105
504.108
504.115
504.125
504.14
504.158
504.181
504.208
504.24
504.276
504.317
504.363
504.414
504.47
504.532
504.598
504.671
504.748
504.832
504.921
505.016
505.116
505.222
505.334
505.451
505.573
505.7
505.833
505.97
506.111
506.257
506.405
506.557
506.712
506.868
507.026
507.184
507.342
507.5
507.656
507.811
507.962
508.111
508.256
508.397
508.533
508.665
508.79
508.911
509.026
509.137
509.243
509.345
509.444
509.538
509.629
509.715
509.798
509.877
509.955
510.03
510.103
510.174
510.245
516.865
516.672
516.34
515.904
515.429
514.973
514.562
514.194
513.851
513.514
513.174
512.829
512.481
512.135
511.793
511.456
511.127
510.806
510.494
510.193
509.905
509.631
509.372
509.13
508.906
508.7
508.512
508.341
508.187
508.047
507.921
507.806
507.702
507.606
507.517
507.433
507.353
507.276
507.201
507.127
507.054
506.982
506.91
506.837
506.765
506.692
506.618
506.545
506.471
506.397
506.322
506.248
506.174
506.1
506.026
505.953
505.88
505.808
505.737
505.666
505.596
505.527
505.458
505.391
505.325
505.26
505.196
505.134
505.072
505.012
504.953
504.896
504.84
504.785
504.732
504.681
504.631
504.582
504.536
504.491
504.448
504.407
504.368
504.331
504.296
504.264
504.233
504.205
504.18
504.156
504.136
504.118
504.104
504.092
504.083
504.078
504.075
504.077
504.082
504.09
504.103
504.119
504.14
504.164
504.194
504.227
504.266
504.309
504.357
504.411
504.469
504.533
504.603
504.677
504.758
504.844
504.936
505.033
505.137
505.245
505.36
505.48
505.605
505.736
505.872
506.012
506.157
506.305
506.457
506.613
506.771
506.931
507.092
507.254
507.416
507.578
507.738
507.896
508.052
508.205
508.353
508.498
508.637
508.771
508.9
509.022
509.139
509.248
509.352
509.45
509.543
509.632
509.717
509.799
509.88
509.958
510.034
510.106
510.177
510.247
516.178
516.053
515.825
515.508
515.137
514.752
514.381
514.036
513.711
513.395
513.079
512.759
512.435
512.111
511.788
511.471
511.16
510.857
510.562
510.276
510.001
509.739
509.49
509.255
509.036
508.832
508.644
508.472
508.313
508.168
508.036
507.914
507.802
507.698
507.6
507.508
507.421
507.337
507.255
507.175
507.097
507.019
506.943
506.866
506.79
506.715
506.639
506.563
506.487
506.411
506.335
506.26
506.185
506.11
506.035
505.961
505.887
505.814
505.742
505.671
505.6
505.53
505.462
505.394
505.327
505.261
505.197
505.133
505.071
505.01
504.951
504.892
504.835
504.78
504.726
504.673
504.622
504.573
504.525
504.479
504.435
504.393
504.352
504.314
504.277
504.243
504.211
504.181
504.153
504.128
504.106
504.086
504.069
504.055
504.044
504.035
504.03
504.029
504.031
504.036
504.045
504.058
504.075
504.096
504.121
504.15
504.185
504.223
504.267
504.315
504.369
504.428
504.492
504.561
504.636
504.716
504.802
504.893
504.991
505.093
505.202
505.316
505.435
505.56
505.69
505.825
505.965
506.109
506.258
506.41
506.565
506.723
506.884
507.046
507.21
507.374
507.539
507.703
507.866
508.028
508.187
508.343
508.496
508.645
508.788
508.926
509.058
509.183
509.302
509.415
509.522
509.622
509.715
509.801
509.881
509.957
510.03
510.102
510.174
510.246
515.631
515.541
515.374
515.136
514.845
514.525
514.2
513.883
513.579
513.282
512.987
512.689
512.387
512.083
511.78
511.481
511.187
510.899
510.618
510.346
510.084
509.832
509.591
509.364
509.149
508.948
508.761
508.587
508.426
508.277
508.139
508.012
507.893
507.782
507.677
507.579
507.484
507.394
507.306
507.221
507.138
507.056
506.975
506.895
506.816
506.737
506.659
506.581
506.503
506.425
506.348
506.271
506.195
506.119
506.043
505.968
505.894
505.82
505.747
505.675
505.604
505.533
505.464
505.395
505.328
505.261
505.196
505.132
505.069
505.007
504.946
504.887
504.829
504.772
504.717
504.664
504.611
504.561
504.511
504.464
504.418
504.374
504.332
504.292
504.253
504.217
504.183
504.151
504.121
504.094
504.068
504.046
504.026
504.009
503.994
503.983
503.974
503.969
503.967
503.968
503.973
503.981
503.993
504.009
504.029
504.053
504.081
504.114
504.151
504.193
504.239
504.291
504.347
504.408
504.475
504.547
504.624
504.706
504.794
504.887
504.986
505.09
505.2
505.315
505.435
505.56
505.69
505.825
505.964
506.107
506.255
506.406
506.56
506.717
506.877
507.039
507.203
507.368
507.534
507.7
507.866
508.031
508.194
508.356
508.515
508.671
508.824
508.972
509.116
509.253
509.385
509.509
509.626
509.735
509.837
509.931
510.018
510.098
510.172
510.241
515.182
515.114
514.985
514.8
514.567
514.301
514.018
513.733
513.451
513.173
512.896
512.617
512.336
512.051
511.767
511.484
511.205
510.931
510.664
510.404
510.153
509.91
509.678
509.456
509.246
509.048
508.862
508.688
508.525
508.373
508.231
508.099
507.975
507.858
507.748
507.643
507.543
507.447
507.354
507.264
507.176
507.091
507.006
506.923
506.84
506.759
506.678
506.598
506.518
506.439
506.36
506.282
506.204
506.127
506.051
505.975
505.9
505.825
505.751
505.679
505.607
505.535
505.465
505.396
505.328
505.26
505.194
505.129
505.065
505.002
504.941
504.88
504.821
504.763
504.707
504.652
504.598
504.546
504.496
504.447
504.399
504.353
504.309
504.267
504.227
504.188
504.152
504.117
504.085
504.054
504.027
504.001
503.978
503.957
503.939
503.924
503.911
503.902
503.895
503.892
503.891
503.895
503.901
503.911
503.925
503.943
503.964
503.99
504.019
504.053
504.091
504.134
504.181
504.233
504.29
504.351
504.417
504.489
504.565
504.646
504.732
504.824
504.92
505.021
505.128
505.239
505.355
505.476
505.601
505.73
505.864
506.002
506.144
506.29
506.439
506.591
506.747
506.905
507.066
507.229
507.394
507.56
507.728
507.897
508.067
508.236
508.406
508.574
508.74
508.904
509.064
509.221
509.372
509.517
509.655
509.785
509.905
510.015
510.117
510.21
514.807
514.753
514.65
514.501
514.31
514.086
513.841
513.585
513.327
513.068
512.808
512.547
512.283
512.016
511.748
511.481
511.216
510.956
510.7
510.451
510.21
509.976
509.751
509.535
509.329
509.134
508.95
508.775
508.612
508.457
508.313
508.176
508.048
507.927
507.812
507.702
507.597
507.496
507.399
507.305
507.213
507.123
507.035
506.949
506.864
506.78
506.697
506.614
506.533
506.452
506.372
506.292
506.213
506.135
506.058
505.981
505.905
505.829
505.755
505.681
505.608
505.536
505.465
505.395
505.326
505.258
505.191
505.125
505.06
504.996
504.934
504.872
504.812
504.753
504.695
504.639
504.584
504.53
504.478
504.427
504.378
504.33
504.284
504.24
504.198
504.157
504.118
504.081
504.046
504.013
503.982
503.953
503.926
503.902
503.88
503.861
503.844
503.83
503.819
503.81
503.805
503.802
503.803
503.807
503.814
503.825
503.839
503.857
503.878
503.904
503.933
503.966
504.004
504.045
504.091
504.141
504.195
504.254
504.317
504.385
504.457
504.533
504.615
504.7
504.79
504.885
504.984
505.087
505.195
505.307
505.423
505.543
505.668
505.796
505.928
506.064
506.204
506.348
506.495
506.647
506.802
506.961
507.123
507.29
507.46
507.633
507.809
507.989
508.17
508.354
508.539
508.723
508.907
509.089
509.268
509.441
509.608
509.767
509.916
510.055
514.491
514.446
514.361
514.237
514.076
513.885
513.672
513.443
513.207
512.967
512.724
512.479
512.23
511.979
511.727
511.474
511.222
510.974
510.729
510.49
510.257
510.031
509.813
509.602
509.401
509.209
509.026
508.852
508.688
508.532
508.385
508.246
508.114
507.988
507.869
507.756
507.646
507.542
507.44
507.342
507.247
507.154
507.063
506.973
506.886
506.799
506.714
506.63
506.546
506.464
506.382
506.301
506.221
506.142
506.064
505.986
505.909
505.833
505.757
505.683
505.609
505.536
505.465
505.394
505.324
505.255
505.187
505.12
505.054
504.989
504.925
504.863
504.801
504.741
504.682
504.624
504.568
504.513
504.459
504.407
504.356
504.306
504.258
504.212
504.167
504.124
504.082
504.042
504.005
503.969
503.935
503.902
503.872
503.845
503.819
503.795
503.774
503.756
503.74
503.726
503.715
503.707
503.701
503.699
503.699
503.703
503.709
503.719
503.732
503.749
503.769
503.792
503.819
503.85
503.884
503.922
503.964
504.009
504.059
504.112
504.169
504.23
504.295
504.364
504.437
504.513
504.594
504.678
504.766
504.858
504.953
505.053
505.156
505.263
505.374
505.489
505.608
505.732
505.86
505.992
506.13
506.272
506.42
506.574
506.733
506.899
507.071
507.249
507.434
507.625
507.822
508.024
508.232
508.443
508.656
508.87
509.083
509.293
509.497
509.693
514.221
514.184
514.112
514.006
513.868
513.702
513.514
513.31
513.094
512.871
512.644
512.414
512.18
511.943
511.703
511.463
511.224
510.986
510.752
510.521
510.296
510.077
509.865
509.66
509.462
509.273
509.091
508.919
508.754
508.597
508.448
508.307
508.172
508.044
507.921
507.804
507.691
507.583
507.478
507.377
507.278
507.182
507.088
506.996
506.906
506.817
506.73
506.644
506.559
506.475
506.392
506.31
506.228
506.148
506.069
505.99
505.912
505.835
505.759
505.683
505.609
505.535
505.463
505.391
505.32
505.25
505.181
505.113
505.047
504.981
504.916
504.852
504.79
504.728
504.668
504.609
504.551
504.494
504.439
504.384
504.332
504.28
504.23
504.182
504.134
504.089
504.045
504.003
503.962
503.923
503.886
503.85
503.817
503.785
503.755
503.728
503.702
503.679
503.658
503.639
503.623
503.608
503.597
503.588
503.581
503.578
503.577
503.578
503.583
503.59
503.601
503.614
503.631
503.65
503.673
503.699
503.728
503.76
503.795
503.834
503.875
503.92
503.969
504.02
504.074
504.132
504.193
504.257
504.324
504.395
504.468
504.545
504.625
504.709
504.796
504.887
504.982
505.081
505.185
505.294
505.408
505.528
505.654
505.786
505.927
506.075
506.232
506.398
506.573
506.758
506.954
507.16
507.376
507.602
507.836
508.079
508.327
508.58
508.834
509.087
513.991
513.959
513.896
513.804
513.684
513.538
513.37
513.186
512.988
512.782
512.57
512.352
512.131
511.907
511.679
511.451
511.222
510.994
510.769
510.547
510.329
510.116
509.909
509.709
509.515
509.328
509.148
508.976
508.811
508.654
508.504
508.361
508.224
508.093
507.967
507.847
507.731
507.62
507.512
507.408
507.306
507.208
507.111
507.017
506.924
506.834
506.744
506.657
506.57
506.485
506.4
506.317
506.235
506.153
506.073
505.993
505.914
505.836
505.759
505.683
505.608
505.533
505.46
505.387
505.315
505.245
505.175
505.106
505.038
504.971
504.905
504.84
504.777
504.714
504.652
504.592
504.532
504.474
504.417
504.361
504.306
504.253
504.201
504.15
504.101
504.053
504.006
503.961
503.918
503.875
503.835
503.796
503.759
503.724
503.69
503.658
503.628
503.6
503.574
503.55
503.528
503.508
503.49
503.475
503.461
503.45
503.441
503.435
503.431
503.429
503.43
503.434
503.439
503.448
503.459
503.472
503.488
503.507
503.528
503.551
503.578
503.606
503.637
503.671
503.707
503.746
503.786
503.83
503.876
503.924
503.975
504.028
504.084
504.143
504.205
504.27
504.338
504.411
504.488
504.569
504.656
504.749
504.848
504.955
505.069
505.193
505.326
505.471
505.627
505.795
505.977
506.173
506.384
506.609
506.849
507.103
507.371
507.65
507.94
508.238
513.795
513.766
513.711
513.629
513.522
513.392
513.241
513.073
512.892
512.7
512.501
512.296
512.086
511.872
511.656
511.437
511.218
510.999
510.782
510.567
510.355
510.148
509.946
509.75
509.559
509.375
509.197
509.026
508.861
508.703
508.552
508.408
508.269
508.136
508.008
507.885
507.767
507.653
507.542
507.435
507.332
507.23
507.132
507.035
506.941
506.848
506.757
506.668
506.58
506.493
506.407
506.323
506.24
506.157
506.076
505.995
505.915
505.837
505.759
505.682
505.606
505.53
505.456
505.382
505.31
505.238
505.167
505.098
505.029
504.961
504.894
504.828
504.763
504.699
504.636
504.574
504.513
504.453
504.394
504.336
504.28
504.225
504.17
504.117
504.066
504.015
503.966
503.918
503.872
503.827
503.783
503.741
503.7
503.661
503.623
503.587
503.553
503.52
503.489
503.459
503.432
503.406
503.382
503.359
503.339
503.321
503.304
503.289
503.277
503.266
503.257
503.251
503.246
503.243
503.242
503.243
503.246
503.251
503.258
503.267
503.277
503.289
503.303
503.319
503.337
503.356
503.376
503.399
503.423
503.448
503.476
503.505
503.536
503.569
503.604
503.642
503.683
503.727
503.775
503.828
503.885
503.947
504.017
504.093
504.178
504.272
504.377
504.493
504.622
504.766
504.925
505.1
505.293
505.505
505.736
505.986
506.257
506.547
506.854
507.179
513.628
513.602
513.552
513.479
513.382
513.264
513.127
512.973
512.805
512.626
512.438
512.244
512.044
511.84
511.633
511.423
511.212
511.001
510.791
510.582
510.377
510.175
509.977
509.784
509.596
509.414
509.238
509.068
508.904
508.746
508.594
508.448
508.308
508.173
508.043
507.918
507.798
507.682
507.569
507.46
507.354
507.251
507.15
507.052
506.955
506.861
506.769
506.678
506.588
506.5
506.413
506.328
506.243
506.16
506.077
505.996
505.915
505.836
505.757
505.679
505.602
505.526
505.451
505.377
505.303
505.231
505.159
505.088
505.018
504.949
504.881
504.814
504.748
504.682
504.618
504.555
504.492
504.431
504.37
504.311
504.252
504.195
504.139
504.084
504.029
503.977
503.925
503.874
503.825
503.777
503.73
503.684
503.64
503.597
503.555
503.514
503.475
503.438
503.402
503.367
503.334
503.302
503.271
503.243
503.215
503.189
503.165
503.142
503.121
503.101
503.083
503.066
503.051
503.036
503.024
503.013
503.003
502.994
502.986
502.98
502.975
502.971
502.967
502.965
502.964
502.963
502.964
502.965
502.967
502.969
502.973
502.977
502.983
502.99
502.998
503.008
503.02
503.035
503.052
503.073
503.099
503.13
503.166
503.21
503.262
503.323
503.394
503.478
503.575
503.688
503.817
503.964
504.131
504.32
504.531
504.765
505.025
505.309
505.618
505.952
513.487
513.464
513.418
513.351
513.263
513.155
513.028
512.885
512.728
512.56
512.383
512.198
512.007
511.811
511.612
511.41
511.206
511.001
510.797
510.594
510.394
510.196
510.002
509.812
509.627
509.447
509.272
509.103
508.939
508.781
508.629
508.482
508.341
508.205
508.074
507.947
507.825
507.706
507.592
507.481
507.373
507.268
507.165
507.065
506.968
506.872
506.778
506.686
506.595
506.506
506.418
506.331
506.246
506.162
506.078
505.996
505.915
505.834
505.755
505.676
505.598
505.521
505.445
505.37
505.296
505.222
505.15
505.078
505.007
504.937
504.868
504.799
504.732
504.665
504.599
504.534
504.47
504.407
504.345
504.284
504.224
504.164
504.106
504.049
503.992
503.937
503.882
503.829
503.777
503.725
503.675
503.626
503.578
503.531
503.485
503.441
503.397
503.355
503.313
503.273
503.234
503.197
503.16
503.124
503.09
503.057
503.025
502.994
502.964
502.935
502.907
502.88
502.854
502.829
502.804
502.781
502.758
502.735
502.713
502.692
502.671
502.65
502.63
502.61
502.589
502.569
502.549
502.529
502.508
502.488
502.467
502.446
502.426
502.406
502.386
502.367
502.35
502.334
502.32
502.309
502.301
502.298
502.3
502.308
502.324
502.349
502.385
502.432
502.493
502.57
502.664
502.778
502.913
503.071
503.254
503.463
503.701
503.969
504.266
504.594
513.37
513.348
513.307
513.244
513.163
513.062
512.944
512.81
512.662
512.503
512.334
512.157
511.974
511.785
511.593
511.397
511.199
511
510.802
510.603
510.407
510.213
510.022
509.835
509.652
509.474
509.3
509.132
508.969
508.811
508.658
508.511
508.369
508.231
508.099
507.971
507.847
507.727
507.611
507.498
507.389
507.282
507.178
507.077
506.978
506.881
506.786
506.692
506.6
506.51
506.421
506.334
506.247
506.162
506.078
505.995
505.913
505.831
505.751
505.672
505.593
505.516
505.439
505.363
505.287
505.213
505.139
505.067
504.995
504.924
504.853
504.784
504.715
504.647
504.58
504.513
504.448
504.383
504.319
504.256
504.194
504.133
504.072
504.013
503.954
503.896
503.839
503.783
503.728
503.673
503.62
503.567
503.515
503.465
503.415
503.366
503.318
503.27
503.224
503.179
503.134
503.09
503.047
503.005
502.964
502.923
502.883
502.844
502.806
502.768
502.73
502.693
502.656
502.62
502.584
502.548
502.512
502.476
502.44
502.403
502.367
502.329
502.292
502.253
502.214
502.174
502.133
502.091
502.048
502.004
501.959
501.913
501.866
501.818
501.77
501.722
501.673
501.625
501.579
501.534
501.491
501.452
501.418
501.389
501.367
501.353
501.35
501.358
501.379
501.417
501.472
501.547
501.645
501.767
501.915
502.093
502.302
502.544
502.821
503.133
513.275
513.255
513.216
513.157
513.08
512.985
512.874
512.747
512.607
512.455
512.293
512.123
511.946
511.763
511.576
511.386
511.193
510.999
510.804
510.61
510.417
510.226
510.038
509.853
509.672
509.495
509.323
509.155
508.992
508.835
508.682
508.534
508.391
508.253
508.119
507.99
507.865
507.744
507.626
507.512
507.401
507.294
507.188
507.086
506.986
506.887
506.791
506.697
506.604
506.513
506.423
506.335
506.247
506.161
506.076
505.992
505.91
505.828
505.747
505.666
505.587
505.509
505.431
505.354
505.278
505.203
505.128
505.055
504.982
504.909
504.838
504.767
504.697
504.628
504.559
504.492
504.425
504.358
504.293
504.228
504.164
504.1
504.038
503.976
503.915
503.854
503.795
503.736
503.678
503.62
503.563
503.507
503.452
503.397
503.343
503.29
503.237
503.185
503.134
503.083
503.033
502.983
502.934
502.885
502.837
502.789
502.741
502.694
502.647
502.6
502.553
502.505
502.458
502.411
502.363
502.315
502.266
502.216
502.166
502.114
502.062
502.008
501.953
501.896
501.838
501.778
501.716
501.653
501.587
501.519
501.449
501.377
501.303
501.227
501.15
501.071
500.991
500.91
500.83
500.75
500.671
500.594
500.521
500.453
500.39
500.335
500.289
500.255
500.234
500.228
500.24
500.273
500.328
500.41
500.519
500.66
500.834
501.044
501.293
501.581
513.201
513.181
513.144
513.089
513.015
512.925
512.818
512.697
512.562
512.416
512.26
512.095
511.923
511.745
511.562
511.376
511.187
510.997
510.806
510.615
510.425
510.236
510.05
509.867
509.688
509.512
509.34
509.173
509.011
508.853
508.7
508.552
508.408
508.269
508.135
508.005
507.879
507.757
507.638
507.523
507.411
507.302
507.196
507.092
506.991
506.892
506.795
506.699
506.606
506.514
506.423
506.334
506.246
506.159
506.074
505.989
505.905
505.823
505.741
505.66
505.58
505.501
505.423
505.345
505.268
505.192
505.116
505.042
504.968
504.894
504.822
504.75
504.679
504.608
504.538
504.469
504.4
504.332
504.265
504.199
504.133
504.067
504.002
503.938
503.875
503.812
503.75
503.688
503.627
503.566
503.506
503.447
503.388
503.329
503.271
503.214
503.156
503.1
503.043
502.987
502.931
502.876
502.82
502.765
502.71
502.654
502.599
502.544
502.488
502.432
502.375
502.318
502.26
502.202
502.142
502.081
502.02
501.957
501.892
501.826
501.757
501.687
501.615
501.54
501.463
501.383
501.3
501.214
501.126
501.034
500.939
500.84
500.739
500.634
500.527
500.417
500.304
500.189
500.073
499.957
499.84
499.724
499.61
499.5
499.394
499.295
499.204
499.123
499.056
499.003
498.968
498.954
498.963
498.999
499.065
499.163
499.297
499.471
499.685
499.944
513.145
513.127
513.091
513.038
512.967
512.88
512.777
512.66
512.529
512.387
512.235
512.074
511.905
511.731
511.552
511.369
511.183
510.995
510.806
510.618
510.43
510.243
510.059
509.877
509.699
509.524
509.353
509.186
509.024
508.866
508.713
508.564
508.421
508.281
508.146
508.015
507.888
507.765
507.646
507.53
507.417
507.308
507.201
507.096
506.994
506.894
506.796
506.7
506.606
506.513
506.422
506.332
506.244
506.156
506.07
505.985
505.9
505.817
505.735
505.653
505.572
505.492
505.413
505.335
505.257
505.18
505.104
505.028
504.953
504.879
504.805
504.732
504.659
504.587
504.516
504.446
504.375
504.306
504.237
504.169
504.101
504.033
503.966
503.9
503.834
503.769
503.704
503.64
503.575
503.512
503.449
503.386
503.323
503.261
503.199
503.137
503.075
503.014
502.952
502.891
502.829
502.768
502.706
502.644
502.582
502.52
502.457
502.393
502.329
502.264
502.198
502.131
502.062
501.993
501.922
501.849
501.774
501.698
501.619
501.538
501.454
501.367
501.278
501.185
501.088
500.988
500.885
500.777
500.665
500.549
500.428
500.303
500.173
500.04
499.901
499.759
499.613
499.463
499.31
499.155
498.999
498.841
498.685
498.53
498.378
498.232
498.093
497.963
497.844
497.741
497.655
497.589
497.547
497.533
497.549
497.6
497.689
497.82
497.996
498.219
513.109
513.091
513.056
513.004
512.935
512.85
512.749
512.635
512.507
512.367
512.218
512.059
511.893
511.721
511.544
511.363
511.179
510.993
510.806
510.619
510.433
510.247
510.064
509.883
509.705
509.531
509.36
509.194
509.032
508.874
508.721
508.572
508.428
508.288
508.153
508.021
507.894
507.77
507.651
507.534
507.421
507.31
507.203
507.097
506.995
506.894
506.796
506.699
506.604
506.511
506.419
506.329
506.24
506.152
506.065
505.979
505.894
505.81
505.727
505.645
505.563
505.483
505.403
505.324
505.245
505.167
505.09
505.013
504.937
504.862
504.787
504.713
504.639
504.566
504.494
504.421
504.35
504.279
504.208
504.138
504.068
503.999
503.93
503.861
503.793
503.725
503.658
503.591
503.524
503.457
503.39
503.324
503.258
503.192
503.126
503.06
502.994
502.927
502.861
502.794
502.727
502.66
502.592
502.524
502.455
502.385
502.315
502.243
502.17
502.096
502.021
501.944
501.866
501.785
501.703
501.618
501.53
501.44
501.348
501.251
501.152
501.049
500.942
500.831
500.716
500.596
500.471
500.341
500.205
500.065
499.918
499.766
499.608
499.444
499.275
499.099
498.919
498.733
498.542
498.347
498.149
497.948
497.746
497.544
497.344
497.147
496.955
496.772
496.599
496.44
496.297
496.175
496.077
496.007
495.968
495.966
496.005
496.087
496.219
496.402
513.091
513.073
513.038
512.987
512.919
512.835
512.735
512.622
512.495
512.357
512.209
512.052
511.887
511.716
511.54
511.36
511.177
510.992
510.806
510.619
510.433
510.249
510.066
509.885
509.708
509.534
509.364
509.197
509.035
508.877
508.724
508.575
508.431
508.291
508.155
508.023
507.896
507.772
507.651
507.534
507.421
507.31
507.202
507.096
506.993
506.892
506.793
506.696
506.601
506.507
506.415
506.324
506.234
506.146
506.059
505.972
505.887
505.802
505.719
505.636
505.554
505.472
505.392
505.312
505.233
505.154
505.076
504.998
504.921
504.845
504.769
504.694
504.619
504.544
504.47
504.397
504.324
504.251
504.179
504.107
504.035
503.964
503.893
503.822
503.752
503.681
503.611
503.541
503.472
503.402
503.332
503.262
503.193
503.123
503.053
502.982
502.912
502.841
502.77
502.698
502.626
502.552
502.479
502.404
502.328
502.251
502.173
502.094
502.013
501.93
501.846
501.759
501.67
501.579
501.485
501.388
501.288
501.185
501.078
500.967
500.853
500.733
500.609
500.48
500.345
500.205
500.059
499.907
499.749
499.583
499.411
499.231
499.044
498.85
498.648
498.439
498.223
497.999
497.769
497.533
497.291
497.045
496.795
496.543
496.291
496.04
495.792
495.551
495.319
495.099
494.895
494.71
494.549
494.417
494.318
494.256
494.237
494.266
494.347
494.484
513.09
513.072
513.038
512.986
512.918
512.834
512.735
512.621
512.495
512.356
512.208
512.051
511.886
511.715
511.539
511.359
511.176
510.991
510.805
510.619
510.433
510.248
510.065
509.884
509.707
509.533
509.362
509.196
509.034
508.876
508.722
508.573
508.429
508.289
508.153
508.021
507.893
507.769
507.649
507.531
507.417
507.306
507.198
507.092
506.989
506.888
506.789
506.691
506.596
506.502
506.409
506.318
506.228
506.139
506.051
505.964
505.878
505.793
505.709
505.626
505.543
505.461
505.38
505.299
505.219
505.14
505.061
504.982
504.904
504.827
504.75
504.674
504.598
504.522
504.447
504.372
504.297
504.223
504.149
504.075
504.002
503.929
503.856
503.783
503.71
503.637
503.565
503.492
503.419
503.347
503.274
503.201
503.127
503.054
502.98
502.905
502.83
502.755
502.679
502.602
502.524
502.445
502.366
502.285
502.202
502.118
502.033
501.946
501.857
501.765
501.672
501.575
501.476
501.375
501.269
501.161
501.049
500.932
500.811
500.686
500.556
500.42
500.279
500.132
499.979
499.819
499.652
499.477
499.295
499.105
498.906
498.699
498.483
498.258
498.023
497.779
497.526
497.264
496.994
496.714
496.427
496.133
495.833
495.528
495.22
494.912
494.604
494.3
494.003
493.717
493.445
493.192
492.962
492.76
492.592
492.464
492.38
492.348
492.371
492.456
513.108
513.09
513.055
513.003
512.934
512.849
512.748
512.633
512.505
512.366
512.216
512.057
511.892
511.719
511.542
511.361
511.177
510.991
510.804
510.617
510.43
510.244
510.061
509.88
509.702
509.527
509.356
509.19
509.027
508.869
508.716
508.567
508.422
508.282
508.146
508.014
507.887
507.763
507.642
507.525
507.411
507.3
507.192
507.086
506.983
506.881
506.782
506.685
506.589
506.495
506.402
506.31
506.22
506.131
506.043
505.955
505.869
505.784
505.699
505.615
505.532
505.449
505.367
505.286
505.205
505.125
505.045
504.966
504.887
504.809
504.731
504.653
504.576
504.499
504.422
504.346
504.27
504.194
504.119
504.043
503.968
503.893
503.818
503.743
503.668
503.593
503.518
503.442
503.367
503.291
503.215
503.139
503.062
502.985
502.907
502.829
502.749
502.669
502.589
502.507
502.424
502.339
502.254
502.166
502.077
501.987
501.894
501.799
501.702
501.602
501.499
501.394
501.285
501.173
501.056
500.936
500.812
500.682
500.548
500.408
500.263
500.112
499.954
499.789
499.616
499.437
499.248
499.052
498.846
498.631
498.406
498.171
497.925
497.669
497.401
497.122
496.832
496.53
496.217
495.893
495.559
495.214
494.861
494.501
494.134
493.763
493.391
493.02
492.653
492.294
491.947
491.618
491.311
491.032
490.787
490.583
490.426
490.323
490.281
490.306
513.143
513.125
513.089
513.035
512.965
512.878
512.775
512.657
512.526
512.384
512.232
512.071
511.902
511.728
511.548
511.365
511.179
510.991
510.802
510.613
510.425
510.238
510.054
509.872
509.693
509.517
509.346
509.179
509.016
508.858
508.704
508.555
508.411
508.271
508.135
508.004
507.876
507.752
507.632
507.515
507.402
507.291
507.183
507.077
506.974
506.873
506.773
506.676
506.58
506.486
506.393
506.301
506.211
506.121
506.033
505.945
505.859
505.773
505.688
505.603
505.52
505.437
505.354
505.272
505.19
505.109
505.029
504.949
504.869
504.79
504.711
504.632
504.554
504.476
504.398
504.32
504.243
504.165
504.088
504.011
503.934
503.857
503.78
503.703
503.626
503.548
503.471
503.393
503.315
503.236
503.157
503.077
502.997
502.916
502.835
502.752
502.669
502.585
502.499
502.412
502.324
502.234
502.143
502.049
501.954
501.856
501.757
501.654
501.549
501.441
501.33
501.215
501.096
500.974
500.847
500.715
500.578
500.436
500.289
500.135
499.975
499.807
499.633
499.45
499.259
499.06
498.851
498.632
498.403
498.163
497.912
497.648
497.373
497.085
496.783
496.469
496.14
495.798
495.441
495.071
494.688
494.291
493.883
493.463
493.034
492.597
492.155
491.711
491.267
490.829
490.4
489.986
489.593
489.227
488.896
488.606
488.366
488.183
488.066
488.022
513.198
513.178
513.141
513.086
513.012