/*--------------------------------*- C++ -*----------------------------------*\
| =========                 |                                                 |
| \\      /  F ield         | OpenFOAM: The Open Source CFD Toolbox           |
|  \\    /   O peration     | Version:  2306                                  |
|   \\  /    A nd           | Website:  www.openfoam.com                      |
|    \\/     M anipulation  |                                                 |
\*---------------------------------------------------------------------------*/
FoamFile
{
    version     2.0;
    format      ascii;
    arch        "LSB;label=32;scalar=64";
    class       surfaceScalarField;
    location    "0.4";
    object      phi;
}
// * * * * * * * * * * * * * * * * * * * * * * * * * * * * * * * * * * * * * //

dimensions      [0 3 -1 0 0 0 0];

oriented        oriented;

internalField   nonuniform List<scalar> 
34640
(
0.0049244
7.55987e-05
0.00478599
0.000138414
0.00463052
0.000155467
0.00447385
0.000156669
0.00431583
0.000158023
0.00415467
0.000161162
0.00399075
0.00016392
0.00382542
0.00016533
0.00366031
0.000165105
0.00349681
0.000163497
0.00333583
0.000160981
0.00317797
0.000157867
0.00302375
0.000154218
0.00287376
0.000149992
0.00272862
0.000145136
0.00258899
0.000139631
0.00245555
0.000133441
0.0023289
0.000126649
0.00220941
0.00011949
0.00209747
0.000111938
0.0019934
0.000104074
0.00189739
9.6009e-05
0.00180952
8.78645e-05
0.00172975
7.97701e-05
0.0016579
7.18529e-05
0.00159367
6.42324e-05
0.00153666
5.70127e-05
0.00148638
5.02788e-05
0.00144228
4.40931e-05
0.00140379
3.8495e-05
0.00137029
3.35013e-05
0.00134118
2.91091e-05
0.00131588
2.52978e-05
0.00129385
2.20348e-05
0.00127457
1.92773e-05
0.00125759
1.69774e-05
0.00124251
1.50798e-05
0.00122899
1.3521e-05
0.00121674
1.2251e-05
0.00120551
1.12296e-05
0.00119509
1.04198e-05
0.0011853
9.78648e-06
0.00117601
9.29681e-06
0.00116708
8.92179e-06
0.00115845
8.63663e-06
0.00115003
8.42073e-06
0.00114177
8.25726e-06
0.00113364
8.13264e-06
0.0011256
8.03605e-06
0.00111764
7.95896e-06
0.00110975
7.89479e-06
0.00110191
7.8386e-06
0.00109412
7.78679e-06
0.00108639
7.73684e-06
0.0010787
7.68713e-06
0.00107106
7.6367e-06
0.00106348
7.5851e-06
0.00105594
7.53228e-06
0.00104847
7.47848e-06
0.00104104
7.42413e-06
0.00103367
7.36978e-06
0.00102636
7.31609e-06
0.00101909
7.26374e-06
0.00101188
7.21344e-06
0.00100471
7.16589e-06
0.000997591
7.12179e-06
0.000990509
7.08179e-06
0.000983462
7.0465e-06
0.000976446
7.01653e-06
0.000969454
6.9924e-06
0.000962479
6.97462e-06
0.000955515
6.96364e-06
0.000948555
6.95987e-06
0.000941592
6.96372e-06
0.000934616
6.97563e-06
0.00092762
6.99598e-06
0.000920595
7.02518e-06
0.000913531
7.06359e-06
0.00090642
7.11157e-06
0.00089925
7.16949e-06
0.000892012
7.23769e-06
0.000884696
7.31654e-06
0.000877289
7.40641e-06
0.000869782
7.50765e-06
0.000862161
7.62065e-06
0.000854415
7.74578e-06
0.000846532
7.88342e-06
0.000838498
8.03398e-06
0.0008303
8.19785e-06
0.000821925
8.37543e-06
0.000813358
8.56712e-06
0.000804584
8.77332e-06
0.00079559
8.99441e-06
0.000786359
9.2308e-06
0.000776876
9.48284e-06
0.000767125
9.75088e-06
0.00075709
1.00353e-05
0.000746754
1.03362e-05
0.0007361
1.0654e-05
0.000725111
1.09888e-05
0.00071377
1.13407e-05
0.000702061
1.17097e-05
0.000689965
1.20955e-05
0.000677467
1.24981e-05
0.00066455
1.29169e-05
0.000651199
1.33515e-05
0.000637397
1.38014e-05
0.000623132
1.42653e-05
0.00060839
1.47421e-05
0.000593159
1.52302e-05
0.000577432
1.57278e-05
0.000561199
1.62327e-05
0.000544457
1.67423e-05
0.000527203
1.72534e-05
0.000509441
1.77624e-05
0.000491175
1.82653e-05
0.000472418
1.87574e-05
0.000453184
1.92336e-05
0.000433496
1.96883e-05
0.000413381
2.01152e-05
0.000392873
2.05075e-05
0.000372015
2.08583e-05
0.000350855
2.11602e-05
0.000329449
2.14055e-05
0.000307862
2.15869e-05
0.000286165
2.16971e-05
0.000264436
2.17295e-05
0.000242758
2.16782e-05
0.000221219
2.15384e-05
0.000199912
2.13069e-05
0.000178931
2.09817e-05
0.000158368
2.05623e-05
0.000138319
2.00495e-05
0.000118874
1.94451e-05
0.000100123
1.8751e-05
8.21541e-05
1.79685e-05
6.50567e-05
1.70974e-05
4.89193e-05
1.61374e-05
3.38296e-05
1.50897e-05
1.98686e-05
1.3961e-05
7.10121e-06
1.27674e-05
-4.43736e-06
1.15386e-05
-1.47659e-05
1.03285e-05
-2.39257e-05
9.1598e-06
-3.19963e-05
8.0706e-06
-3.90571e-05
7.06075e-06
-4.51534e-05
6.09632e-06
-5.02884e-05
5.13506e-06
-5.44382e-05
4.14973e-06
-5.76087e-05
3.17058e-06
-5.98946e-05
2.28584e-06
-6.14682e-05
1.57362e-06
-6.24958e-05
1.02761e-06
-6.30439e-05
5.48096e-07
-6.30941e-05
5.01815e-08
-6.27222e-05
-3.71914e-07
-6.2047e-05
-6.75175e-07
-6.11175e-05
-9.296e-07
-5.98498e-05
-1.26765e-06
-1.75933e-06
-5.80905e-05
0.00503752
3.80748e-05
0.0050774
9.85348e-05
0.00509715
0.00013572
0.00510102
0.000152795
0.00509795
0.000161096
0.00509063
0.000168478
0.0050778
0.000176757
0.00505833
0.000184797
0.00503218
0.000191259
0.005
0.000195672
0.00496268
0.000198301
0.00492096
0.000199591
0.00487537
0.000199808
0.00482632
0.000199042
0.00477418
0.000197272
0.00471936
0.000194458
0.0046622
0.000190593
0.00460311
0.000185742
0.00454259
0.000180008
0.00448107
0.000173463
0.00441894
0.000166199
0.00435662
0.000158337
0.00429446
0.000150019
0.00423283
0.000141402
0.00417204
0.000132644
0.00411237
0.000123903
0.00405406
0.000115321
0.00399731
0.000107026
0.00394228
9.91247e-05
0.00388908
9.16988e-05
0.00383778
8.48045e-05
0.00378841
7.84761e-05
0.00374098
7.27243e-05
0.00369547
6.75441e-05
0.00365184
6.29133e-05
0.00361
5.88112e-05
0.00356984
5.52434e-05
0.00353131
5.20485e-05
0.00349434
4.92196e-05
0.00345884
4.67326e-05
0.00342471
4.45495e-05
0.00339186
4.26327e-05
0.00336021
4.09462e-05
0.00332968
3.94571e-05
0.00330018
3.8136e-05
0.00327164
3.69571e-05
0.003244
3.58982e-05
0.0032172
3.49404e-05
0.00319116
3.40678e-05
0.00316586
3.3267e-05
0.00314122
3.25268e-05
0.00311722
3.18383e-05
0.00309382
3.11941e-05
0.00307097
3.05884e-05
0.00304864
3.00167e-05
0.0030268
2.94754e-05
0.00300542
2.8962e-05
0.00298448
2.84745e-05
0.00296395
2.80115e-05
0.0029438
2.75719e-05
0.00292401
2.71554e-05
0.00290457
2.67614e-05
0.00288544
2.63899e-05
0.00286661
2.60409e-05
0.00284806
2.57146e-05
0.00282977
2.54113e-05
0.00281173
2.51313e-05
0.0027939
2.48751e-05
0.00277627
2.46431e-05
0.00275883
2.44357e-05
0.00274155
2.42535e-05
0.00272441
2.40969e-05
0.00270741
2.39663e-05
0.00269051
2.38623e-05
0.0026737
2.37857e-05
0.00265696
2.3737e-05
0.00264027
2.37171e-05
0.0026236
2.37266e-05
0.00260695
2.37663e-05
0.00259028
2.38371e-05
0.00257358
2.39397e-05
0.00255682
2.40752e-05
0.00253998
2.42446e-05
0.00252304
2.44488e-05
0.00250597
2.46889e-05
0.00248875
2.49662e-05
0.00247135
2.52818e-05
0.00245375
2.56371e-05
0.00243591
2.60334e-05
0.00241782
2.64721e-05
0.00239943
2.69547e-05
0.00238072
2.74828e-05
0.00236166
2.80579e-05
0.00234221
2.86817e-05
0.00232233
2.93558e-05
0.002302
3.00822e-05
0.00228118
3.08624e-05
0.00225981
3.16983e-05
0.00223788
3.25916e-05
0.00221532
3.35441e-05
0.0021921
3.45575e-05
0.00216818
3.56334e-05
0.0021435
3.67734e-05
0.00211802
3.79785e-05
0.00209169
3.92492e-05
0.00206445
4.05878e-05
0.00203626
4.19949e-05
0.00200705
4.34707e-05
0.00197678
4.50148e-05
0.00194538
4.66268e-05
0.00191281
4.83059e-05
0.00187899
5.00504e-05
0.00184387
5.18577e-05
0.0018074
5.3724e-05
0.00176952
5.56447e-05
0.00173017
5.7614e-05
0.0016893
5.96245e-05
0.00164687
6.16676e-05
0.00160283
6.37327e-05
0.00155713
6.58075e-05
0.00150976
6.78775e-05
0.0014607
6.99261e-05
0.00140992
7.1934e-05
0.00135745
7.38796e-05
0.0013033
7.57386e-05
0.00124751
7.74836e-05
0.00119016
7.90848e-05
0.00113132
8.05091e-05
0.00107114
8.17213e-05
0.00100977
8.26832e-05
0.000947392
8.33551e-05
0.000884258
8.36961e-05
0.000820642
8.36652e-05
0.000756864
8.32229e-05
0.000693282
8.23335e-05
0.000630283
8.09671e-05
0.000568278
7.91027e-05
0.000507683
7.67323e-05
0.000448907
7.3866e-05
0.000392332
7.05355e-05
0.000338303
6.67966e-05
0.000287115
6.27265e-05
0.000239017
5.84269e-05
0.000194192
5.39843e-05
0.000152784
4.94792e-05
0.000114881
4.49632e-05
8.0494e-05
4.04834e-05
4.96399e-05
3.59892e-05
2.23967e-05
3.13929e-05
-1.37119e-06
2.69385e-05
-2.18693e-05
2.2784e-05
-3.9493e-05
1.91974e-05
-5.44638e-05
1.59984e-05
-6.69028e-05
1.2987e-05
-7.69609e-05
1.01083e-05
-8.48549e-05
7.52214e-06
-9.09089e-05
5.37877e-06
-9.53333e-05
3.49477e-06
-9.81546e-05
1.55362e-06
-5.93566e-07
-9.93203e-05
0.00501445
2.36272e-05
0.00504447
6.85093e-05
0.00507418
0.000106011
0.00509859
0.000128387
0.00511781
0.000141876
0.00513503
0.000151254
0.00515196
0.000159827
0.00516818
0.000168575
0.00518272
0.000176723
0.00519492
0.000183471
0.00520465
0.000188571
0.00521208
0.000192157
0.0052174
0.000194494
0.00522066
0.000195783
0.00522183
0.000196101
0.00522084
0.000195443
0.00521764
0.000193793
0.00521223
0.000191158
0.00520467
0.000187565
0.00519503
0.000183105
0.00518338
0.000177853
0.00516981
0.000171902
0.00515445
0.000165374
0.00513745
0.000158401
0.00511897
0.000151126
0.00509919
0.00014369
0.00507827
0.000136231
0.00505643
0.000128875
0.00503382
0.000121734
0.00501062
0.000114898
0.00498698
0.000108439
0.00496305
0.000102407
0.00493894
9.68317e-05
0.00491476
9.1727e-05
0.00489058
8.70925e-05
0.00486648
8.29175e-05
0.00484254
7.9175e-05
0.00481878
7.58105e-05
0.00479521
7.27897e-05
0.00477186
7.00878e-05
0.00474873
6.76774e-05
0.00472583
6.55283e-05
0.00470317
6.36093e-05
0.00468074
6.18905e-05
0.00465853
6.03446e-05
0.00463654
5.89471e-05
0.00461476
5.76765e-05
0.00459319
5.65144e-05
0.00457181
5.54449e-05
0.00455062
5.44544e-05
0.00452962
5.35316e-05
0.00450879
5.26671e-05
0.00448813
5.18534e-05
0.00446763
5.10842e-05
0.0044473
5.03547e-05
0.00442711
4.96613e-05
0.00440707
4.9001e-05
0.00438717
4.83719e-05
0.00436741
4.77726e-05
0.00434778
4.7202e-05
0.00432828
4.66599e-05
0.00430889
4.6146e-05
0.00428962
4.56604e-05
0.00427046
4.52036e-05
0.0042514
4.4776e-05
0.00423243
4.43785e-05
0.00421355
4.40117e-05
0.00419475
4.36766e-05
0.00417602
4.33741e-05
0.00415735
4.31054e-05
0.00413873
4.28718e-05
0.00412015
4.26738e-05
0.00410161
4.25126e-05
0.00408308
4.23896e-05
0.00406456
4.23062e-05
0.00404603
4.22637e-05
0.00402749
4.22638e-05
0.0040089
4.23078e-05
0.00399027
4.23975e-05
0.00397158
4.25345e-05
0.0039528
4.27207e-05
0.00393391
4.29579e-05
0.00391491
4.32482e-05
0.00389576
4.35936e-05
0.00387646
4.39964e-05
0.00385696
4.4459e-05
0.00383726
4.49836e-05
0.00381733
4.55731e-05
0.00379713
4.62301e-05
0.00377664
4.69575e-05
0.00375584
4.77582e-05
0.00373469
4.86355e-05
0.00371315
4.95927e-05
0.0036912
5.06333e-05
0.0036688
5.17607e-05
0.0036459
5.29788e-05
0.00362247
5.42914e-05
0.00359847
5.57026e-05
0.00357384
5.72164e-05
0.00354855
5.88371e-05
0.00352254
6.05689e-05
0.00349575
6.24162e-05
0.00346814
6.43833e-05
0.00343965
6.64743e-05
0.0034102
6.86934e-05
0.00337975
7.10454e-05
0.00334821
7.35343e-05
0.00331551
7.6164e-05
0.00328159
7.89376e-05
0.00324636
8.18575e-05
0.00320974
8.4928e-05
0.00317164
8.81506e-05
0.00313197
9.15265e-05
0.00309064
9.50557e-05
0.00304755
9.87372e-05
0.00300259
0.000102569
0.00295567
0.000106546
0.00290667
0.000110664
0.00285549
0.000114914
0.00280201
0.000119285
0.00274613
0.000123765
0.00268771
0.000128337
0.00262667
0.00013298
0.00256288
0.00013767
0.00249624
0.000142377
0.00242665
0.000147069
0.00235404
0.000151704
0.00227831
0.000156237
0.00219941
0.000160616
0.00211732
0.000164779
0.00203201
0.000168659
0.00194353
0.000172181
0.00185193
0.000175261
0.00175734
0.000177812
0.00165993
0.000179742
0.00155995
0.00018095
0.00145772
0.000181334
0.00135366
0.000180791
0.0012483
0.000179224
0.00114229
0.000176546
0.0010364
0.000172688
0.000931526
0.000167603
0.000828674
0.000161279
0.000728917
0.000153742
0.000633328
0.000145068
0.0005429
0.000135391
0.000458484
0.000124899
0.000380626
0.000113847
0.000309447
0.000102572
0.000244938
9.14477e-05
0.000186935
8.07868e-05
0.000135357
7.07753e-05
8.98501e-05
6.15056e-05
5.03928e-05
5.24443e-05
1.65655e-05
4.39355e-05
-1.21093e-05
3.61969e-05
-3.63329e-05
2.96024e-05
-5.65138e-05
2.36756e-05
-7.28901e-05
1.79299e-05
1.22505e-05
-8.57341e-05
0.00500634
1.72885e-05
0.00502385
5.09991e-05
0.00504705
8.28143e-05
0.00506939
0.000106043
0.00508908
0.000122187
0.00510686
0.000133478
0.00512443
0.000142249
0.00514265
0.000150363
0.00516108
0.000158284
0.00517925
0.000165302
0.00519682
0.000171002
0.00521368
0.000175301
0.00522985
0.000178324
0.00524536
0.000180269
0.00526017
0.000181292
0.00527418
0.000181437
0.00528726
0.000180712
0.0052993
0.00017912
0.00531018
0.00017668
0.00531984
0.000173449
0.00532819
0.000169497
0.00533519
0.000164902
0.0053408
0.000159762
0.00534502
0.000154182
0.00534787
0.000148279
0.00534939
0.000142171
0.00534965
0.000135973
0.00534873
0.000129794
0.00534673
0.000123732
0.00534376
0.000117873
0.00533991
0.000112284
0.0053353
0.000107017
0.00533003
0.000102106
0.00532418
9.75732e-05
0.00531785
9.34244e-05
0.00531111
8.96526e-05
0.00530405
8.6241e-05
0.00529669
8.31682e-05
0.00528907
8.04067e-05
0.00528123
7.79311e-05
0.00527319
7.57177e-05
0.00526498
7.37422e-05
0.00525661
7.19798e-05
0.00524809
7.04054e-05
0.00523944
6.89953e-05
0.00523066
6.77278e-05
0.00522175
6.65834e-05
0.00521272
6.5545e-05
0.00520357
6.45978e-05
0.00519429
6.37289e-05
0.0051849
6.29275e-05
0.00517538
6.21845e-05
0.00516574
6.14924e-05
0.00515598
6.08449e-05
0.0051461
6.02373e-05
0.00513609
5.96657e-05
0.00512597
5.9127e-05
0.00511572
5.86194e-05
0.00510535
5.81412e-05
0.00509486
5.76915e-05
0.00508425
5.72701e-05
0.00507352
5.68767e-05
0.00506267
5.65118e-05
0.0050517
5.61758e-05
0.00504061
5.58696e-05
0.00502939
5.55942e-05
0.00501805
5.53507e-05
0.00500659
5.51403e-05
0.004995
5.49647e-05
0.00498328
5.48252e-05
0.00497142
5.47237e-05
0.00495944
5.46613e-05
0.00494731
5.46399e-05
0.00493504
5.46614e-05
0.00492262
5.47278e-05
0.00491004
5.48413e-05
0.0048973
5.50041e-05
0.00488439
5.52184e-05
0.0048713
5.54868e-05
0.00485802
5.58118e-05
0.00484455
5.61961e-05
0.00483086
5.66425e-05
0.00481696
5.7154e-05
0.00480281
5.77338e-05
0.00478843
5.83851e-05
0.00477377
5.91116e-05
0.00475884
5.99168e-05
0.00474361
6.08046e-05
0.00472806
6.17792e-05
0.00471217
6.28449e-05
0.00469592
6.40062e-05
0.00467929
6.52678e-05
0.00466225
6.66348e-05
0.00464477
6.81124e-05
0.00462683
6.97062e-05
0.00460838
7.14219e-05
0.00458941
7.32656e-05
0.00456987
7.52435e-05
0.00454972
7.73622e-05
0.00452893
7.96284e-05
0.00450745
8.20493e-05
0.00448523
8.4632e-05
0.00446223
8.7384e-05
0.00443839
9.03129e-05
0.00441366
9.34265e-05
0.00438797
9.67328e-05
0.00436127
0.00010024
0.00433348
0.000103956
0.00430453
0.000107889
0.00427434
0.000112046
0.00424283
0.000116435
0.00420992
0.000121065
0.0041755
0.00012594
0.00413949
0.000131069
0.00410177
0.000136454
0.00406224
0.000142102
0.00402077
0.000148013
0.00397725
0.00015419
0.00393153
0.000160632
0.00388348
0.000167335
0.00383295
0.000174294
0.00377979
0.000181499
0.00372383
0.000188937
0.00366491
0.000196592
0.00360284
0.00020444
0.00353746
0.000212454
0.00346856
0.000220599
0.00339597
0.000228833
0.00331948
0.000237106
0.0032389
0.000245358
0.00315404
0.000253518
0.00306472
0.000261505
0.00297076
0.000269218
0.00287201
0.000276557
0.00276834
0.000283413
0.00265964
0.00028965
0.00254585
0.000295124
0.00242697
0.000299679
0.00230304
0.000303148
0.00217423
0.000305356
0.0020408
0.000306123
0.00190313
0.000305265
0.0017618
0.000302613
0.00161754
0.000298003
0.00147133
0.000291274
0.00132443
0.000282293
0.00117836
0.00027097
0.00103491
0.000257299
0.000896106
0.000241375
0.000764109
0.000223445
0.000640983
0.000203912
0.00052843
0.000183328
0.000427614
0.000162322
0.0003384
0.000141659
0.000260189
0.000122146
0.000191974
0.000104411
0.000132791
8.87862e-05
8.20903e-05
7.43761e-05
3.91192e-05
6.0901e-05
4.83331e-05
3.03659e-06
0.00500365
1.36378e-05
0.00501435
4.0303e-05
0.00503119
6.59758e-05
0.00504934
8.7885e-05
0.00506702
0.00010451
0.00508362
0.000116874
0.00509961
0.000126267
0.00511581
0.000134163
0.00513256
0.000141531
0.00514965
0.000148212
0.00516675
0.000153904
0.00518365
0.000158394
0.0052003
0.00016168
0.00521667
0.000163901
0.00523276
0.000165198
0.00524854
0.000165657
0.00526393
0.000165323
0.00527883
0.000164219
0.00529314
0.000162371
0.00530677
0.000159821
0.00531963
0.000156629
0.00533167
0.000152867
0.00534281
0.000148616
0.00535303
0.000143965
0.0053623
0.000139012
0.00537061
0.000133854
0.005378
0.000128589
0.00538448
0.000123308
0.00539012
0.000118096
0.00539497
0.000113026
0.00539909
0.000108159
0.00540257
0.000103545
0.00540546
9.92159e-05
0.00540783
9.51949e-05
0.00540977
9.14915e-05
0.00541131
8.81047e-05
0.00541253
8.50271e-05
0.00541345
8.22474e-05
0.00541411
7.97468e-05
0.00541454
7.75042e-05
0.00541476
7.54986e-05
0.00541479
7.37096e-05
0.00541465
7.21171e-05
0.00541436
7.07004e-05
0.00541391
6.94397e-05
0.00541332
6.83163e-05
0.00541259
6.73127e-05
0.00541173
6.64137e-05
0.00541072
6.56056e-05
0.00540957
6.48765e-05
0.00540828
6.42165e-05
0.00540685
6.36167e-05
0.00540527
6.30699e-05
0.00540355
6.257e-05
0.00540167
6.21121e-05
0.00539964
6.16924e-05
0.00539746
6.13078e-05
0.00539513
6.09561e-05
0.00539263
6.06356e-05
0.00538998
6.03453e-05
0.00538716
6.00847e-05
0.00538419
5.98537e-05
0.00538105
5.96525e-05
0.00537774
5.94817e-05
0.00537427
5.93421e-05
0.00537063
5.92348e-05
0.00536682
5.9161e-05
0.00536284
5.91222e-05
0.00535868
5.91199e-05
0.00535435
5.9156e-05
0.00534984
5.92321e-05
0.00534515
5.93502e-05
0.00534028
5.95123e-05
0.00533522
5.97208e-05
0.00532997
5.99779e-05
0.00532453
6.02863e-05
0.00531888
6.06486e-05
0.00531303
6.10677e-05
0.00530697
6.15465e-05
0.0053007
6.20882e-05
0.0052942
6.26961e-05
0.00528746
6.33737e-05
0.00528049
6.41247e-05
0.00527327
6.49529e-05
0.0052658
6.58625e-05
0.00525805
6.68579e-05
0.00525002
6.79436e-05
0.0052417
6.91245e-05
0.00523308
7.04057e-05
0.00522413
7.17927e-05
0.00521484
7.32911e-05
0.00520521
7.4907e-05
0.00519519
7.66467e-05
0.00518479
7.85169e-05
0.00517397
8.05246e-05
0.00516272
8.26772e-05
0.005151
8.49826e-05
0.00513879
8.74488e-05
0.00512607
9.00845e-05
0.0051128
9.28985e-05
0.00509895
9.59002e-05
0.00508448
9.90993e-05
0.00506936
0.000102506
0.00505354
0.000106131
0.00503698
0.000109984
0.00501964
0.000114078
0.00500146
0.000118423
0.00498238
0.000123033
0.00496235
0.000127918
0.00494131
0.000133091
0.00491918
0.000138564
0.00489589
0.000144351
0.00487137
0.000150462
0.00484553
0.000156911
0.00481827
0.000163709
0.00478951
0.000170867
0.00475912
0.000178395
0.00472701
0.000186302
0.00469305
0.000194596
0.0046571
0.000203282
0.00461903
0.000212366
0.00457868
0.000221848
0.00453589
0.000231726
0.00449049
0.000241994
0.00444229
0.000252644
0.00439108
0.000263659
0.00433666
0.000275018
0.0042788
0.000286693
0.00421726
0.000298649
0.00415178
0.000310838
0.00408209
0.000323206
0.00400792
0.000335682
0.00392895
0.000348185
0.00384488
0.000360623
0.00375541
0.00037289
0.0036602
0.00038486
0.00355893
0.000396389
0.00345129
0.000407315
0.00333698
0.000417457
0.00321572
0.000426616
0.00308728
0.000434571
0.00295148
0.000441059
0.00280825
0.000445839
0.0026576
0.000448662
0.00249965
0.000449217
0.00233475
0.0004472
0.0021634
0.000442314
0.00198642
0.000434284
0.00180491
0.000422885
0.0016204
0.000407947
0.00143497
0.000389346
0.00125126
0.00036704
0.00107245
0.000341129
0.000902156
0.000311954
0.000744089
0.000280213
0.000601486
0.000247015
0.000476627
0.000213645
0.000369484
0.000181518
0.000278425
0.00015196
0.00012583
0.000200928
0.00500249
1.11483e-05
0.00500982
3.2972e-05
0.00502171
5.4091e-05
0.00503621
7.33809e-05
0.00505142
8.93027e-05
0.00506648
0.000101814
0.00508114
0.000111608
0.00509573
0.000119565
0.00511075
0.000126516
0.00512619
0.000132767
0.00514189
0.000138211
0.00515762
0.000142661
0.00517324
0.000146059
0.00518869
0.000148449
0.00520396
0.00014993
0.00521902
0.000150598
0.00523382
0.000150521
0.0052483
0.000149742
0.00526238
0.000148297
0.00527597
0.000146226
0.00528902
0.00014358
0.00530146
0.000140424
0.00531325
0.000136827
0.00532435
0.000132867
0.00533473
0.000128627
0.0053444
0.00012419
0.00535335
0.000119639
0.00536161
0.000115051
0.0053692
0.000110501
0.00537618
0.00010605
0.00538258
0.000101755
0.00538847
9.76587e-05
0.00539389
9.37933e-05
0.0053989
9.0181e-05
0.00540356
8.6834e-05
0.00540791
8.37563e-05
0.00541199
8.09462e-05
0.00541584
7.83967e-05
0.00541949
7.60953e-05
0.00542297
7.40262e-05
0.0054263
7.21719e-05
0.00542949
7.05153e-05
0.00543257
6.90396e-05
0.00543554
6.77279e-05
0.00543842
6.65638e-05
0.0054412
6.55311e-05
0.0054439
6.46149e-05
0.00544651
6.38015e-05
0.00544904
6.30788e-05
0.00545148
6.24359e-05
0.00545383
6.18634e-05
0.0054561
6.13534e-05
0.00545827
6.08988e-05
0.00546034
6.0494e-05
0.00546232
6.01342e-05
0.0054642
5.98155e-05
0.00546597
5.95349e-05
0.00546764
5.929e-05
0.00546919
5.90792e-05
0.00547064
5.89014e-05
0.00547197
5.8756e-05
0.00547318
5.86428e-05
0.00547427
5.85619e-05
0.00547523
5.85138e-05
0.00547608
5.84993e-05
0.00547679
5.85195e-05
0.00547738
5.85757e-05
0.00547783
5.86691e-05
0.00547815
5.88017e-05
0.00547833
5.8975e-05
0.00547837
5.9191e-05
0.00547827
5.94519e-05
0.00547802
5.97599e-05
0.00547763
6.01174e-05
0.00547708
6.0527e-05
0.00547637
6.09914e-05
0.00547551
6.15137e-05
0.00547448
6.2097e-05
0.00547328
6.27445e-05
0.00547191
6.34597e-05
0.00547036
6.42464e-05
0.00546862
6.51084e-05
0.0054667
6.60498e-05
0.00546458
6.7075e-05
0.00546225
6.81887e-05
0.00545971
6.93958e-05
0.00545695
7.07014e-05
0.00545397
7.2111e-05
0.00545074
7.36305e-05
0.00544727
7.52659e-05
0.00544354
7.70237e-05
0.00543953
7.89109e-05
0.00543524
8.09346e-05
0.00543066
8.31025e-05
0.00542576
8.54228e-05
0.00542053
8.79038e-05
0.00541496
9.05546e-05
0.00540903
9.33846e-05
0.00540271
9.64038e-05
0.00539598
9.96227e-05
0.00538883
0.000103052
0.00538123
0.000106704
0.00537314
0.000110589
0.00536455
0.000114722
0.00535542
0.000119114
0.00534572
0.00012378
0.00533541
0.000128734
0.00532445
0.00013399
0.0053128
0.000139564
0.00530042
0.000145472
0.00528726
0.00015173
0.00527325
0.000158354
0.00525835
0.000165361
0.0052425
0.000172768
0.00522561
0.000180593
0.00520763
0.000188851
0.00518847
0.00019756
0.00516803
0.000206736
0.00514623
0.000216394
0.00512297
0.000226549
0.00509812
0.000237214
0.00507157
0.000248401
0.00504317
0.000260119
0.00501279
0.000272375
0.00498026
0.000285172
0.00494541
0.00029851
0.00490805
0.000312383
0.00486796
0.00032678
0.00482492
0.000341684
0.00477869
0.000357068
0.004729
0.000372898
0.00467556
0.000389129
0.00461803
0.000405706
0.0045561
0.000422559
0.00448938
0.000439607
0.00441749
0.000456749
0.00434001
0.000473869
0.0042565
0.000490829
0.00416649
0.000507469
0.0040695
0.000523606
0.00396504
0.000539028
0.00385261
0.000553495
0.00373169
0.000566751
0.00360185
0.00057851
0.00346262
0.000588445
0.00331362
0.000596197
0.00315455
0.000601382
0.00298527
0.000603567
0.00280581
0.000602345
0.00261642
0.000597338
0.00241769
0.000588076
0.0022106
0.000574133
0.00199656
0.000555163
0.00177757
0.000530942
0.00155643
0.000501362
0.00133696
0.000466476
0.00112407
0.000426544
0.000923372
0.000382212
0.000740564
0.000334769
0.000286294
0.0005801
0.00500185
9.29985e-06
0.00500728
2.75389e-05
0.00501604
4.53326e-05
0.00502755
6.18689e-05
0.00504038
7.64708e-05
0.00505372
8.84762e-05
0.00506711
9.82155e-05
0.00508051
0.000106166
0.00509416
0.000112873
0.00510819
0.000118735
0.00512255
0.000123848
0.00513708
0.000128131
0.00515162
0.000131514
0.00516608
0.000133991
0.0051804
0.00013561
0.00519455
0.00013645
0.00520849
0.000136585
0.00522216
0.000136071
0.0052355
0.000134953
0.00524845
0.000133274
0.00526096
0.000131079
0.00527296
0.000128424
0.00528441
0.000125371
0.00529529
0.000121986
0.00530558
0.00011834
0.00531526
0.000114506
0.00532435
0.000110553
0.00533285
0.000106551
0.00534079
0.00010256
0.0053482
9.86377e-05
0.00535513
9.48315e-05
0.0053616
9.1181e-05
0.00536768
8.77167e-05
0.0053734
8.44603e-05
0.00537881
8.14259e-05
0.00538395
7.86204e-05
0.00538885
7.60453e-05
0.00539355
7.36969e-05
0.00539807
7.15673e-05
0.00540246
6.96448e-05
0.00540671
6.79157e-05
0.00541086
6.63663e-05
0.00541492
6.49825e-05
0.0054189
6.37504e-05
0.0054228
6.26563e-05
0.00542665
6.16867e-05
0.00543043
6.08287e-05
0.00543417
6.00704e-05
0.00543784
5.94009e-05
0.00544147
5.88106e-05
0.00544504
5.82909e-05
0.00544856
5.78345e-05
0.00545202
5.7435e-05
0.00545543
5.7087e-05
0.00545878
5.6786e-05
0.00546207
5.65283e-05
0.00546529
5.6311e-05
0.00546845
5.61318e-05
0.00547154
5.59891e-05
0.00547456
5.58817e-05
0.00547751
5.58089e-05
0.00548038
5.57706e-05
0.00548317
5.57669e-05
0.00548589
5.57983e-05
0.00548852
5.58654e-05
0.00549107
5.59694e-05
0.00549354
5.61114e-05
0.00549591
5.6293e-05
0.0054982
5.65158e-05
0.00550039
5.67816e-05
0.00550249
5.70925e-05
0.00550449
5.74505e-05
0.00550639
5.78582e-05
0.00550819
5.8318e-05
0.00550989
5.88326e-05
0.00551147
5.9405e-05
0.00551295
6.00382e-05
0.00551431
6.07356e-05
0.00551555
6.15006e-05
0.00551668
6.23369e-05
0.00551767
6.32485e-05
0.00551854
6.42394e-05
0.00551928
6.53141e-05
0.00551988
6.64773e-05
0.00552033
6.77338e-05
0.00552064
6.9089e-05
0.00552079
7.05483e-05
0.00552079
7.21177e-05
0.00552061
7.38032e-05
0.00552027
7.56116e-05
0.00551974
7.75498e-05
0.00551903
7.96251e-05
0.00551812
8.18453e-05
0.005517
8.42187e-05
0.00551567
8.67539e-05
0.00551411
8.94603e-05
0.00551232
9.23474e-05
0.00551028
9.54256e-05
0.00550798
9.87056e-05
0.0055054
0.000102199
0.00550254
0.000105917
0.00549937
0.000109874
0.00549587
0.000114081
0.00549204
0.000118553
0.00548785
0.000123305
0.00548328
0.000128351
0.00547831
0.000133709
0.0054729
0.000139393
0.00546704
0.000145423
0.0054607
0.000151815
0.00545384
0.000158588
0.00544644
0.000165762
0.00543844
0.000173357
0.00542982
0.000181392
0.00542052
0.000189889
0.0054105
0.000198869
0.00539971
0.000208353
0.00538808
0.000218363
0.00537555
0.00022892
0.00536206
0.000240045
0.00534751
0.000251758
0.00533183
0.00026408
0.00531492
0.000277029
0.00529668
0.000290622
0.00527698
0.000304873
0.00525569
0.000319795
0.00523268
0.000335397
0.00520777
0.000351684
0.0051808
0.000368655
0.00515157
0.000386305
0.00511984
0.000404622
0.00508539
0.000423585
0.00504793
0.000443165
0.00500716
0.000463323
0.00496276
0.000484006
0.00491436
0.00050515
0.00486156
0.000526673
0.00480391
0.000548476
0.00474094
0.000570438
0.00467213
0.000592418
0.00459691
0.000614246
0.00451468
0.000635729
0.00442479
0.000656643
0.00432657
0.000676728
0.00421932
0.000695692
0.00410232
0.000713192
0.00397486
0.000728847
0.0038362
0.000742225
0.00368567
0.000752871
0.00352272
0.000760293
0.00334686
0.00076394
0.00315777
0.00076322
0.00295545
0.000757483
0.00274019
0.000746206
0.00251275
0.000728798
0.00227457
0.000704655
0.00202777
0.000673344
0.00177532
0.000634666
0.00152143
0.000588655
0.000535659
0.00127207
0.00500144
7.86096e-06
0.00500568
2.33025e-05
0.00501255
3.84549e-05
0.00502174
5.26812e-05
0.00503256
6.56466e-05
0.00504425
7.67949e-05
0.00505635
8.61117e-05
0.00506867
9.38456e-05
0.00508122
0.000100325
0.00509409
0.000105864
0.00510729
0.000110646
0.00512073
0.000114693
0.00513428
0.000117967
0.00514782
0.000120445
0.00516129
0.000122145
0.00517462
0.000123119
0.00518777
0.000123431
0.0052007
0.000123141
0.00521336
0.0001223
0.00522568
0.000120953
0.00523761
0.000119143
0.00524912
0.000116919
0.00526015
0.000114334
0.00527069
0.000111447
0.00528072
0.000108317
0.00529021
0.000105009
0.00529919
0.000101581
0.00530764
9.80931e-05
0.0053156
9.45992e-05
0.00532309
9.1148e-05
0.00533014
8.77822e-05
0.00533679
8.45372e-05
0.00534306
8.14415e-05
0.00534901
7.85161e-05
0.00535466
7.57757e-05
0.00536005
7.32292e-05
0.00536521
7.08798e-05
0.00537018
6.87268e-05
0.00537499
6.67649e-05
0.00537965
6.49861e-05
0.00538418
6.33804e-05
0.00538861
6.19368e-05
0.00539295
6.06438e-05
0.00539721
5.94899e-05
0.0054014
5.84637e-05
0.00540553
5.75539e-05
0.00540961
5.67496e-05
0.00541364
5.60404e-05
0.00541763
5.54169e-05
0.00542157
5.48705e-05
0.00542547
5.43934e-05
0.00542932
5.39792e-05
0.00543313
5.36219e-05
0.0054369
5.33166e-05
0.00544063
5.30592e-05
0.00544431
5.28462e-05
0.00544795
5.26748e-05
0.00545154
5.2543e-05
0.00545508
5.24491e-05
0.00545857
5.2392e-05
0.00546201
5.23713e-05
0.00546539
5.23865e-05
0.00546872
5.24378e-05
0.00547199
5.25258e-05
0.00547521
5.26512e-05
0.00547836
5.28149e-05
0.00548145
5.30182e-05
0.00548448
5.32627e-05
0.00548745
5.35499e-05
0.00549035
5.38819e-05
0.00549318
5.42605e-05
0.00549594
5.46881e-05
0.00549864
5.51671e-05
0.00550125
5.57001e-05
0.0055038
5.62899e-05
0.00550626
5.69396e-05
0.00550865
5.76522e-05
0.00551095
5.84312e-05
0.00551317
5.92802e-05
0.00551531
6.02031e-05
0.00551735
6.12039e-05
0.0055193
6.22869e-05
0.00552116
6.34566e-05
0.00552292
6.4718e-05
0.00552458
6.60761e-05
0.00552613
6.75363e-05
0.00552757
6.91045e-05
0.0055289
7.07867e-05
0.00553012
7.25894e-05
0.00553121
7.45193e-05
0.00553218
7.65839e-05
0.00553301
7.87906e-05
0.00553371
8.11476e-05
0.00553426
8.36635e-05
0.00553467
8.63473e-05
0.00553492
8.92087e-05
0.00553501
9.22576e-05
0.00553493
9.5505e-05
0.00553468
9.89619e-05
0.00553424
0.00010264
0.0055336
0.000106553
0.00553276
0.000110712
0.00553171
0.000115133
0.00553043
0.00011983
0.00552892
0.000124817
0.00552716
0.000130112
0.00552514
0.000135731
0.00552284
0.000141692
0.00552025
0.000148013
0.00551735
0.000154713
0.00551413
0.000161813
0.00551055
0.000169333
0.00550662
0.000177296
0.00550228
0.000185723
0.00549754
0.000194638
0.00549234
0.000204063
0.00548667
0.000214025
0.00548049
0.000224546
0.00547375
0.000235654
0.00546643
0.000247372
0.00545846
0.000259726
0.0054498
0.000272741
0.00544038
0.000286443
0.00543015
0.000300855
0.00541902
0.000316001
0.00540692
0.000331902
0.00539373
0.000348578
0.00537937
0.000366046
0.00536371
0.000384321
0.0053466
0.000403412
0.0053279
0.000423325
0.00530742
0.000444062
0.00528497
0.000465617
0.00526032
0.000487974
0.00523321
0.000511113
0.00520336
0.000534999
0.00517045
0.000559588
0.0051341
0.00058482
0.00509392
0.00061062
0.00504944
0.000636893
0.00500017
0.000663523
0.00494553
0.00069037
0.0048849
0.000717266
0.00481762
0.000744011
0.00474294
0.00077037
0.00466007
0.000796064
0.00456815