/*--------------------------------*- C++ -*----------------------------------*\
| =========                 |                                                 |
| \\      /  F ield         | OpenFOAM: The Open Source CFD Toolbox           |
|  \\    /   O peration     | Version:  2306                                  |
|   \\  /    A nd           | Website:  www.openfoam.com                      |
|    \\/     M anipulation  |                                                 |
\*---------------------------------------------------------------------------*/
FoamFile
{
    version     2.0;
    format      ascii;
    arch        "LSB;label=32;scalar=64";
    class       volVectorField;
    location    "0.4";
    object      U;
}
// * * * * * * * * * * * * * * * * * * * * * * * * * * * * * * * * * * * * * //

dimensions      [0 1 -1 0 0 0 0];

internalField   nonuniform List<vector> 
17600
(
(9.80708 0.0850068 0)
(9.62283 0.1805 0)
(9.41196 0.217949 0)
(9.14628 0.225578 0)
(8.83439 0.225099 0)
(8.49836 0.225385 0)
(8.15616 0.226736 0)
(7.81672 0.227128 0)
(7.4827 0.225219 0)
(7.15415 0.220818 0)
(6.83067 0.214448 0)
(6.51244 0.206753 0)
(6.20026 0.19816 0)
(5.89552 0.188852 0)
(5.59967 0.178846 0)
(5.31426 0.168129 0)
(5.0406 0.156697 0)
(4.78013 0.144612 0)
(4.53374 0.131894 0)
(4.30221 0.118628 0)
(4.08621 0.104997 0)
(3.88623 0.0912587 0)
(3.70253 0.0777044 0)
(3.53515 0.0646282 0)
(3.38386 0.0522998 0)
(3.24814 0.0409449 0)
(3.12729 0.0307332 0)
(3.02038 0.0217706 0)
(2.92637 0.0140997 0)
(2.84412 0.00770591 0)
(2.77242 0.00252876 0)
(2.71007 -0.00152588 0)
(2.65588 -0.00457196 0)
(2.60874 -0.006734 0)
(2.56759 -0.00813457 0)
(2.53147 -0.00889552 0)
(2.49952 -0.00912642 0)
(2.47101 -0.00895813 0)
(2.44531 -0.00851184 0)
(2.4219 -0.00788145 0)
(2.4003 -0.00713605 0)
(2.38014 -0.00632685 0)
(2.36109 -0.00549226 0)
(2.34291 -0.00466082 0)
(2.32538 -0.00385317 0)
(2.30834 -0.00308374 0)
(2.29168 -0.00236215 0)
(2.2753 -0.00169439 0)
(2.25915 -0.00108361 0)
(2.24316 -0.000530764 0)
(2.22731 -3.50594e-05 0)
(2.21159 0.000405664 0)
(2.19596 0.000794556 0)
(2.18044 0.00113544 0)
(2.16502 0.0014325 0)
(2.1497 0.00169013 0)
(2.13448 0.00191266 0)
(2.11937 0.00210432 0)
(2.10436 0.00226912 0)
(2.08946 0.00241079 0)
(2.07467 0.0025328 0)
(2.05998 0.00263827 0)
(2.04541 0.00273005 0)
(2.03093 0.00281066 0)
(2.01656 0.00288236 0)
(2.00227 0.00294714 0)
(1.98807 0.00300675 0)
(1.97394 0.00306273 0)
(1.95988 0.0031164 0)
(1.94588 0.00316891 0)
(1.93191 0.00322122 0)
(1.91798 0.0032741 0)
(1.90406 0.00332825 0)
(1.89014 0.00338435 0)
(1.8762 0.00344304 0)
(1.86224 0.00350495 0)
(1.84822 0.00357061 0)
(1.83413 0.00364049 0)
(1.81996 0.00371499 0)
(1.80569 0.0037945 0)
(1.79128 0.00387933 0)
(1.77673 0.0039698 0)
(1.76201 0.00406617 0)
(1.74711 0.00416869 0)
(1.73198 0.00427758 0)
(1.71662 0.00439305 0)
(1.701 0.00451527 0)
(1.68508 0.00464439 0)
(1.66886 0.00478053 0)
(1.65229 0.00492379 0)
(1.63536 0.00507421 0)
(1.61802 0.00523182 0)
(1.60026 0.00539658 0)
(1.58204 0.00556841 0)
(1.56334 0.00574716 0)
(1.54411 0.00593261 0)
(1.52433 0.00612445 0)
(1.50397 0.00632225 0)
(1.48298 0.00652549 0)
(1.46135 0.00673348 0)
(1.43903 0.00694539 0)
(1.41599 0.00716016 0)
(1.39219 0.00737651 0)
(1.36761 0.00759291 0)
(1.3422 0.0078076 0)
(1.31594 0.00801919 0)
(1.2888 0.00822628 0)
(1.26074 0.00842711 0)
(1.23174 0.00861952 0)
(1.20177 0.0088012 0)
(1.17082 0.0089696 0)
(1.13887 0.00912178 0)
(1.1059 0.00925422 0)
(1.07191 0.0093629 0)
(1.0369 0.00944348 0)
(1.00087 0.00949135 0)
(0.963848 0.00950178 0)
(0.925855 0.00946995 0)
(0.886929 0.00939116 0)
(0.847119 0.00926102 0)
(0.806487 0.00907567 0)
(0.76511 0.00883214 0)
(0.723076 0.00852868 0)
(0.680492 0.00816518 0)
(0.637477 0.00774367 0)
(0.594168 0.00726878 0)
(0.550713 0.00674824 0)
(0.507273 0.00619324 0)
(0.464021 0.00561859 0)
(0.421138 0.00504252 0)
(0.378808 0.00448581 0)
(0.33722 0.00397015 0)
(0.296561 0.00351539 0)
(0.257017 0.00313597 0)
(0.218769 0.00283705 0)
(0.181995 0.00261084 0)
(0.146874 0.00243405 0)
(0.113584 0.00226825 0)
(0.082306 0.00206469 0)
(0.0532113 0.00177479 0)
(0.0264473 0.00136466 0)
(0.00209921 0.000833024 0)
(-0.0197722 0.000233177 0)
(-0.0392297 -0.000405737 0)
(-0.0564566 -0.0009795 0)
(-0.0715866 -0.00141611 0)
(-0.0847479 -0.0016955 0)
(-0.0959881 -0.00188229 0)
(-0.10526 -0.00208184 0)
(-0.112542 -0.00229031 0)
(-0.117939 -0.00243427 0)
(-0.121747 -0.00242163 0)
(-0.124321 -0.00229901 0)
(-0.125875 -0.00218203 0)
(-0.12644 -0.00211313 0)
(-0.126074 -0.00207599 0)
(-0.124997 -0.00198005 0)
(-0.123394 -0.00186232 0)
(-0.12122 -0.00184287 0)
(-0.118207 -0.00201013 0)
(10.0008 0.122279 0)
(10.0676 0.272137 0)
(10.1383 0.342321 0)
(10.1915 0.367553 0)
(10.2161 0.377243 0)
(10.2123 0.385768 0)
(10.1866 0.395782 0)
(10.1458 0.40522 0)
(10.094 0.411968 0)
(10.033 0.415276 0)
(9.96332 0.415459 0)
(9.88493 0.413207 0)
(9.79809 0.409069 0)
(9.70347 0.403324 0)
(9.60188 0.396016 0)
(9.49435 0.3871 0)
(9.38179 0.37651 0)
(9.26524 0.364235 0)
(9.14544 0.350292 0)
(9.02324 0.334782 0)
(8.89947 0.317887 0)
(8.77497 0.299857 0)
(8.65049 0.28099 0)
(8.52676 0.261604 0)
(8.40442 0.242027 0)
(8.28407 0.222582 0)
(8.16618 0.203567 0)
(8.0512 0.185253 0)
(7.93945 0.16786 0)
(7.83123 0.151565 0)
(7.72669 0.136488 0)
(7.62599 0.122702 0)
(7.52912 0.11023 0)
(7.43613 0.0990615 0)
(7.3469 0.0891449 0)
(7.26137 0.0804147 0)
(7.17933 0.0727808 0)
(7.10062 0.0661641 0)
(7.02511 0.0604847 0)
(6.95262 0.0556539 0)
(6.88298 0.0515744 0)
(6.816 0.0481458 0)
(6.75151 0.0452713 0)
(6.68934 0.0428614 0)
(6.62933 0.0408375 0)
(6.57132 0.0391314 0)
(6.51516 0.0376858 0)
(6.46074 0.0364525 0)
(6.40793 0.0353914 0)
(6.35661 0.0344692 0)
(6.3067 0.0336589 0)
(6.25809 0.0329386 0)
(6.21071 0.0322907 0)
(6.16447 0.0317014 0)
(6.11931 0.03116 0)
(6.07516 0.0306584 0)
(6.03196 0.0301906 0)
(5.98966 0.0297521 0)
(5.9482 0.0293398 0)
(5.90753 0.0289517 0)
(5.86761 0.0285866 0)
(5.82839 0.0282439 0)
(5.78983 0.0279234 0)
(5.75189 0.0276255 0)
(5.71453 0.0273506 0)
(5.6777 0.0270994 0)
(5.64137 0.0268728 0)
(5.6055 0.0266717 0)
(5.57006 0.026497 0)
(5.535 0.0263498 0)
(5.50028 0.0262311 0)
(5.46588 0.0261419 0)
(5.43175 0.026083 0)
(5.39785 0.0260555 0)
(5.36415 0.0260603 0)
(5.33061 0.0260984 0)
(5.29719 0.0261708 0)
(5.26384 0.0262787 0)
(5.23053 0.0264232 0)
(5.19722 0.0266053 0)
(5.16386 0.0268262 0)
(5.13041 0.0270873 0)
(5.09682 0.0273897 0)
(5.06306 0.0277348 0)
(5.02906 0.028124 0)
(4.99478 0.0285588 0)
(4.96017 0.0290407 0)
(4.92518 0.0295711 0)
(4.88976 0.0301519 0)
(4.85384 0.0307846 0)
(4.81737 0.031471 0)
(4.78029 0.0322128 0)
(4.74253 0.0330118 0)
(4.70403 0.0338698 0)
(4.66472 0.0347887 0)
(4.62454 0.0357703 0)
(4.5834 0.0368163 0)
(4.54123 0.0379285 0)
(4.49795 0.0391085 0)
(4.45347 0.040358 0)
(4.40772 0.0416782 0)
(4.36061 0.0430704 0)
(4.31203 0.0445354 0)
(4.2619 0.0460738 0)
(4.21011 0.0476857 0)
(4.15657 0.0493702 0)
(4.10117 0.0511257 0)
(4.0438 0.0529494 0)
(3.98435 0.054838 0)
(3.92271 0.0567872 0)
(3.85877 0.0587917 0)
(3.79241 0.0608452 0)
(3.72351 0.06294 0)
(3.65196 0.0650669 0)
(3.57764 0.0672147 0)
(3.50045 0.0693704 0)
(3.42026 0.071519 0)
(3.337 0.073643 0)
(3.25055 0.0757222 0)
(3.16084 0.0777341 0)
(3.06781 0.079653 0)
(2.97139 0.0814507 0)
(2.87156 0.0830962 0)
(2.76832 0.084556 0)
(2.6617 0.0857942 0)
(2.55175 0.0867732 0)
(2.43859 0.0874543 0)
(2.32236 0.0877983 0)
(2.20329 0.0877669 0)
(2.08165 0.0873238 0)
(1.9578 0.0864364 0)
(1.83217 0.0850773 0)
(1.70527 0.0832276 0)
(1.57769 0.080879 0)
(1.45013 0.0780355 0)
(1.32333 0.0747139 0)
(1.1981 0.0709452 0)
(1.07527 0.0667794 0)
(0.95569 0.0622903 0)
(0.840153 0.0575805 0)
(0.729395 0.0527788 0)
(0.624049 0.0480327 0)
(0.524639 0.0435174 0)
(0.431609 0.0392864 0)
(0.345268 0.0353518 0)
(0.265869 0.0315942 0)
(0.193494 0.0278165 0)
(0.128216 0.0239062 0)
(0.070202 0.0198913 0)
(0.019316 0.0158963 0)
(-0.0247998 0.0122288 0)
(-0.062839 0.00911824 0)
(-0.0953951 0.00661762 0)
(-0.122723 0.00439542 0)
(-0.145084 0.00229711 0)
(-0.16287 0.000447031 0)
(-0.176725 -0.000921965 0)
(-0.187172 -0.00210585 0)
(-0.194391 -0.00354606 0)
(-0.198315 -0.00544376 0)
(10.0003 0.0614122 0)
(10.0359 0.160323 0)
(10.0898 0.227822 0)
(10.1516 0.268451 0)
(10.2101 0.293285 0)
(10.2592 0.312151 0)
(10.298 0.330012 0)
(10.3292 0.347479 0)
(10.3556 0.363365 0)
(10.3789 0.376571 0)
(10.3993 0.386699 0)
(10.4165 0.393928 0)
(10.4298 0.398642 0)
(10.4388 0.401149 0)
(10.4434 0.401592 0)
(10.4434 0.399981 0)
(10.4391 0.396274 0)
(10.4304 0.390449 0)
(10.4173 0.382569 0)
(10.4001 0.372762 0)
(10.3788 0.361213 0)
(10.3536 0.348157 0)
(10.3248 0.333861 0)
(10.2925 0.318624 0)
(10.2571 0.302758 0)
(10.219 0.286576 0)
(10.1783 0.27038 0)
(10.1356 0.254448 0)
(10.0912 0.239018 0)
(10.0453 0.224288 0)
(9.99843 0.210404 0)
(9.9508 0.197467 0)
(9.90265 0.185529 0)
(9.85427 0.174607 0)
(9.80581 0.164679 0)
(9.75746 0.155707 0)
(9.7093 0.147632 0)
(9.66147 0.1404 0)
(9.61405 0.133955 0)
(9.56708 0.128233 0)
(9.52056 0.123159 0)
(9.47451 0.118655 0)
(9.42893 0.114642 0)
(9.38381 0.111049 0)
(9.33915 0.107812 0)
(9.29494 0.104876 0)
(9.25117 0.102194 0)
(9.20781 0.0997275 0)
(9.16486 0.0974443 0)
(9.1223 0.0953174 0)
(9.08011 0.0933248 0)
(9.03828 0.0914487 0)
(8.99679 0.0896744 0)
(8.95564 0.0879907 0)
(8.91482 0.0863884 0)
(8.8743 0.0848609 0)
(8.83408 0.0834029 0)
(8.79415 0.0820107 0)
(8.75449 0.0806816 0)
(8.71511 0.079414 0)
(8.67598 0.0782069 0)
(8.63709 0.0770597 0)
(8.59844 0.0759726 0)
(8.56001 0.0749459 0)
(8.52179 0.0739802 0)
(8.48377 0.0730764 0)
(8.44593 0.0722355 0)
(8.40825 0.0714587 0)
(8.37072 0.0707473 0)
(8.33332 0.0701027 0)
(8.29604 0.0695263 0)
(8.25885 0.0690199 0)
(8.22173 0.0685853 0)
(8.18467 0.0682242 0)
(8.14762 0.0679385 0)
(8.11058 0.0677302 0)
(8.07352 0.0676012 0)
(8.03639 0.0675535 0)
(7.99919 0.0675895 0)
(7.96187 0.0677113 0)
(7.9244 0.0679216 0)
(7.88674 0.0682228 0)
(7.84886 0.0686179 0)
(7.81072 0.0691097 0)
(7.77228 0.0697016 0)
(7.73349 0.0703968 0)
(7.69431 0.0711989 0)
(7.65468 0.0721118 0)
(7.61456 0.0731395 0)
(7.57389 0.0742863 0)
(7.53262 0.0755567 0)
(7.49068 0.0769553 0)
(7.448 0.0784871 0)
(7.40453 0.0801574 0)
(7.3602 0.0819715 0)
(7.31491 0.0839351 0)
(7.26861 0.086054 0)
(7.2212 0.0883343 0)
(7.17259 0.090782 0)
(7.12269 0.0934037 0)
(7.07142 0.0962056 0)
(7.01865 0.0991942 0)
(6.96428 0.102376 0)
(6.90821 0.105758 0)
(6.8503 0.109345 0)
(6.79043 0.113143 0)
(6.72847 0.117157 0)
(6.66428 0.121391 0)
(6.59771 0.125848 0)
(6.5286 0.13053 0)
(6.45679 0.135438 0)
(6.38211 0.140571 0)
(6.3044 0.145926 0)
(6.22345 0.151498 0)
(6.13908 0.157282 0)
(6.05109 0.163265 0)
(5.95928 0.169436 0)
(5.86343 0.175778 0)
(5.76331 0.182268 0)
(5.65872 0.188881 0)
(5.54943 0.195585 0)
(5.4352 0.20234 0)
(5.31581 0.209102 0)
(5.19105 0.215816 0)
(5.06069 0.222419 0)
(4.92453 0.228841 0)
(4.78238 0.234997 0)
(4.63408 0.240793 0)
(4.4795 0.246125 0)
(4.31853 0.250872 0)
(4.15114 0.254904 0)
(3.97733 0.258076 0)
(3.79721 0.260234 0)
(3.61095 0.261214 0)
(3.41884 0.260855 0)
(3.2213 0.259 0)
(3.01889 0.255508 0)
(2.81236 0.250263 0)
(2.60264 0.243192 0)
(2.39091 0.234277 0)
(2.17857 0.223575 0)
(1.96729 0.211221 0)
(1.75897 0.197447 0)
(1.55574 0.182548 0)
(1.3598 0.166874 0)
(1.17329 0.150818 0)
(0.998075 0.134764 0)
(0.835633 0.119173 0)
(0.686703 0.104623 0)
(0.551167 0.0915038 0)
(0.428727 0.0798778 0)
(0.319091 0.0692691 0)
(0.221884 0.0590711 0)
(0.137138 0.0490864 0)
(0.0641951 0.0393554 0)
(0.00209279 0.0304963 0)
(-0.0506685 0.0229311 0)
(-0.0949877 0.0163179 0)
(-0.13136 0.00986004 0)
(-0.160331 0.00319068 0)
(10.0002 0.0417812 0)
(10.0198 0.117276 0)
(10.0537 0.178916 0)
(10.0983 0.224502 0)
(10.1468 0.256569 0)
(10.1935 0.280048 0)
(10.2355 0.299309 0)
(10.2732 0.316684 0)
(10.3082 0.332559 0)
(10.3422 0.346427 0)
(10.376 0.357801 0)
(10.4096 0.366542 0)
(10.4428 0.372809 0)
(10.4748 0.376855 0)
(10.5055 0.378876 0)
(10.5345 0.378972 0)
(10.5616 0.377179 0)
(10.5867 0.373527 0)
(10.6096 0.368081 0)
(10.6301 0.360947 0)
(10.6482 0.352273 0)
(10.6636 0.34224 0)
(10.6764 0.331061 0)
(10.6863 0.318971 0)
(10.6935 0.306218 0)
(10.698 0.293056 0)
(10.6999 0.279733 0)
(10.6993 0.266479 0)
(10.6964 0.253499 0)
(10.6915 0.240967 0)
(10.6846 0.229025 0)
(10.6761 0.217773 0)
(10.6662 0.207285 0)
(10.655 0.197596 0)
(10.6427 0.188721 0)
(10.6295 0.180649 0)
(10.6156 0.173357 0)
(10.6011 0.166798 0)
(10.586 0.160911 0)
(10.5705 0.155634 0)
(10.5546 0.150907 0)
(10.5383 0.146669 0)
(10.5217 0.142866 0)
(10.5048 0.139445 0)
(10.4876 0.136356 0)
(10.4702 0.133557 0)
(10.4525 0.131008 0)
(10.4345 0.128676 0)
(10.4163 0.126531 0)
(10.3979 0.124547 0)
(10.3792 0.122703 0)
(10.3603 0.120981 0)
(10.3412 0.119364 0)
(10.3218 0.117841 0)
(10.3021 0.1164 0)
(10.2822 0.115035 0)
(10.2621 0.113739 0)
(10.2417 0.112507 0)
(10.2211 0.111336 0)
(10.2003 0.110223 0)
(10.1792 0.109168 0)
(10.1578 0.108171 0)
(10.1362 0.10723 0)
(10.1144 0.106347 0)
(10.0923 0.105524 0)
(10.07 0.104761 0)
(10.0475 0.104061 0)
(10.0247 0.103425 0)
(10.0016 0.102856 0)
(9.97832 0.102357 0)
(9.95475 0.101931 0)
(9.93092 0.10158 0)
(9.9068 0.101308 0)
(9.88241 0.101118 0)
(9.85771 0.101015 0)
(9.83272 0.101001 0)
(9.8074 0.101081 0)
(9.78175 0.101258 0)
(9.75576 0.101538 0)
(9.7294 0.101923 0)
(9.70265 0.102419 0)
(9.67549 0.103031 0)
(9.64791 0.103764 0)
(9.61987 0.104622 0)
(9.59134 0.105613 0)
(9.56231 0.106741 0)
(9.53273 0.108013 0)
(9.50257 0.109435 0)
(9.4718 0.111015 0)
(9.44038 0.11276 0)
(9.40825 0.114677 0)
(9.37538 0.116775 0)
(9.34172 0.119062 0)
(9.30721 0.121547 0)
(9.2718 0.124239 0)
(9.23543 0.127148 0)
(9.19803 0.130285 0)
(9.15953 0.133659 0)
(9.11986 0.137281 0)
(9.07894 0.141164 0)
(9.03669 0.145318 0)
(8.99302 0.149756 0)
(8.94783 0.154491 0)
(8.90102 0.159533 0)
(8.85248 0.164897 0)
(8.80209 0.170594 0)
(8.74973 0.176638 0)
(8.69527 0.183042 0)
(8.63856 0.189816 0)
(8.57947 0.196974 0)
(8.51782 0.204525 0)
(8.45345 0.21248 0)
(8.38617 0.220846 0)
(8.3158 0.22963 0)
(8.24213 0.238837 0)
(8.16494 0.248469 0)
(8.08401 0.258525 0)
(7.99909 0.269001 0)
(7.90992 0.279888 0)
(7.81624 0.291173 0)
(7.71775 0.302837 0)
(7.61415 0.314853 0)
(7.50513 0.327189 0)
(7.39035 0.3398 0)
(7.26947 0.352635 0)
(7.14213 0.36563 0)
(7.00796 0.378708 0)
(6.86658 0.391777 0)
(6.7176 0.40473 0)
(6.56065 0.417443 0)
(6.39532 0.429771 0)
(6.22124 0.44155 0)
(6.03805 0.452592 0)
(5.84543 0.462688 0)
(5.64307 0.471597 0)
(5.43074 0.479056 0)
(5.20826 0.48478 0)
(4.97557 0.488467 0)
(4.73269 0.489802 0)
(4.47985 0.488456 0)
(4.21743 0.484101 0)
(3.94609 0.476414 0)
(3.66675 0.4651 0)
(3.3807 0.449928 0)
(3.08965 0.430763 0)
(2.79581 0.407622 0)
(2.50194 0.380735 0)
(2.21137 0.350588 0)
(1.92801 0.31795 0)
(1.65606 0.28393 0)
(1.39987 0.249811 0)
(1.16348 0.216899 0)
(0.949784 0.186195 0)
(0.760241 0.158831 0)
(0.593542 0.135368 0)
(0.447627 0.115461 0)
(0.32016 0.0975714 0)
(0.210465 0.0805153 0)
(0.11733 0.0635036 0)
(0.0389325 0.0467762 0)
(10.0001 0.0316627 0)
(10.0128 0.0917411 0)
(10.036 0.145037 0)
(10.0682 0.188698 0)
(10.1059 0.222282 0)
(10.1451 0.247718 0)
(10.1829 0.267813 0)
(10.2183 0.284868 0)
(10.2518 0.299981 0)
(10.2843 0.313283 0)
(10.3168 0.324518 0)
(10.3498 0.333474 0)
(10.383 0.340135 0)
(10.4162 0.344636 0)
(10.449 0.347158 0)
(10.4811 0.347848 0)
(10.5124 0.34681 0)
(10.5427 0.344123 0)
(10.5719 0.339863 0)
(10.5998 0.334132 0)
(10.6264 0.327057 0)
(10.6514 0.318792 0)
(10.6747 0.309516 0)
(10.6961 0.299424 0)
(10.7158 0.288724 0)
(10.7335 0.277627 0)
(10.7493 0.266339 0)
(10.7632 0.255054 0)
(10.7754 0.243947 0)
(10.7859 0.233169 0)
(10.7948 0.222846 0)
(10.8024 0.213073 0)
(10.8087 0.203922 0)
(10.8139 0.195434 0)
(10.8182 0.187631 0)
(10.8216 0.180513 0)
(10.8243 0.174062 0)
(10.8263 0.168243 0)
(10.8279 0.163011 0)
(10.8289 0.158316 0)
(10.8295 0.15411 0)
(10.8297 0.150349 0)
(10.8296 0.146989 0)
(10.8291 0.143987 0)
(10.8284 0.141304 0)
(10.8273 0.138902 0)
(10.826 0.136745 0)
(10.8244 0.134802 0)
(10.8225 0.133045 0)
(10.8203 0.131449 0)
(10.8179 0.129993 0)
(10.8152 0.128659 0)
(10.8122 0.12743 0)
(10.8089 0.126296 0)
(10.8053 0.125244 0)
(10.8014 0.124268 0)
(10.7972 0.123359 0)
(10.7926 0.122515 0)
(10.7878 0.12173 0)
(10.7827 0.121004 0)
(10.7772 0.120334 0)
(10.7714 0.11972 0)
(10.7653 0.119163 0)
(10.7589 0.118663 0)
(10.7521 0.118223 0)
(10.745 0.117843 0)
(10.7375 0.117526 0)
(10.7297 0.117275 0)
(10.7216 0.117093 0)
(10.7131 0.116983 0)
(10.7043 0.116949 0)
(10.6951 0.116994 0)
(10.6855 0.117123 0)
(10.6756 0.11734 0)
(10.6653 0.11765 0)
(10.6546 0.118056 0)
(10.6435 0.118565 0)
(10.632 0.119181 0)
(10.6201 0.11991 0)
(10.6078 0.120758 0)
(10.595 0.121731 0)
(10.5818 0.122835 0)
(10.5681 0.124077 0)
(10.5539 0.125465 0)
(10.5392 0.127005 0)
(10.524 0.128706 0)
(10.5082 0.130576 0)
(10.4918 0.132625 0)
(10.4749 0.134861 0)
(10.4573 0.137294 0)
(10.4391 0.139935 0)
(10.4202 0.142794 0)
(10.4006 0.145883 0)
(10.3801 0.149214 0)
(10.3589 0.1528 0)
(10.3369 0.156654 0)
(10.3139 0.16079 0)
(10.29 0.165223 0)
(10.2651 0.169967 0)
(10.2391 0.175039 0)
(10.212 0.180456 0)
(10.1837 0.186234 0)
(10.1541 0.192391 0)
(10.1232 0.198946 0)
(10.0909 0.205917 0)
(10.057 0.213324 0)
(10.0215 0.221187 0)
(9.98426 0.229526 0)
(9.94518 0.238362 0)
(9.90415 0.247715 0)
(9.86101 0.257606 0)
(9.81564 0.268055 0)
(9.76787 0.279081 0)
(9.71756 0.290703 0)
(9.66451 0.302939 0)
(9.60855 0.315805 0)
(9.54946 0.329315 0)
(9.48703 0.34348 0)
(9.42103 0.358309 0)
(9.3512 0.373805 0)
(9.27726 0.389969 0)
(9.19893 0.406793 0)
(9.11589 0.424266 0)
(9.0278 0.442367 0)
(8.93431 0.461066 0)
(8.83502 0.480323 0)
(8.72952 0.500084 0)
(8.61737 0.520283 0)
(8.49811 0.540838 0)
(8.37123 0.561648 0)
(8.23621 0.582591 0)
(8.09249 0.603525 0)
(7.9395 0.624279 0)
(7.77664 0.644656 0)
(7.60326 0.664424 0)
(7.41874 0.683317 0)
(7.22243 0.701033 0)
(7.01368 0.717239 0)
(6.79188 0.731562 0)
(6.55645 0.743598 0)
(6.30686 0.752908 0)
(6.0427 0.759021 0)
(5.7637 0.761437 0)
(5.46975 0.75962 0)
(5.161 0.753021 0)
(4.83788 0.741099 0)
(4.50124 0.723336 0)
(4.1524 0.699274 0)
(3.79325 0.668555 0)
(3.42641 0.631034 0)
(3.05535 0.58686 0)
(2.68469 0.53661 0)
(2.32022 0.481444 0)
(1.96902 0.423214 0)
(1.63868 0.36456 0)
(1.33661 0.308574 0)
(1.06847 0.25775 0)
(0.837291 0.214043 0)
(0.640722 0.177881 0)
(0.473491 0.147479 0)
(10.0001 0.0253327 0)
(10.0092 0.074293 0)
(10.0261 0.11944 0)
(10.0502 0.158588 0)
(10.0797 0.190695 0)
(10.1121 0.216192 0)
(10.1451 0.236531 0)
(10.1773 0.253354 0)
(10.2083 0.267845 0)
(10.2386 0.280502 0)
(10.2688 0.291332 0)
(10.2993 0.300187 0)
(10.3301 0.306982 0)
(10.3611 0.311755 0)
(10.3921 0.314637 0)
(10.4226 0.31578 0)
(10.4527 0.315318 0)
(10.482 0.313361 0)
(10.5106 0.310002 0)
(10.5383 0.305338 0)
(10.5649 0.299482 0)
(10.5905 0.292568 0)
(10.6148 0.284747 0)
(10.6378 0.276187 0)
(10.6594 0.267063 0)
(10.6795 0.257555 0)
(10.6982 0.247839 0)
(10.7155 0.238081 0)
(10.7314 0.228433 0)
(10.746 0.219027 0)
(10.7594 0.209976 0)
(10.7717 0.201368 0)
(10.7829 0.193269 0)
(10.7933 0.185724 0)
(10.8029 0.178755 0)
(10.8119 0.172368 0)
(10.8203 0.166553 0)
(10.8281 0.161286 0)
(10.8356 0.156535 0)
(10.8427 0.152264 0)
(10.8495 0.148437 0)
(10.8559 0.145017 0)
(10.8622 0.141969 0)
(10.8682 0.139257 0)
(10.874 0.136848 0)
(10.8797 0.134709 0)
(10.8852 0.132807 0)
(10.8905 0.131114 0)
(10.8956 0.129605 0)
(10.9006 0.128256 0)
(10.9053 0.127049 0)
(10.91 0.125964 0)
(10.9144 0.12499 0)
(10.9186 0.124112 0)
(10.9227 0.123322 0)
(10.9266 0.122612 0)
(10.9302 0.121974 0)
(10.9336 0.121405 0)
(10.9369 0.1209 0)
(10.9399 0.120459 0)
(10.9426 0.120078 0)
(10.9452 0.119759 0)
(10.9475 0.119501 0)
(10.9496 0.119305 0)
(10.9514 0.119173 0)
(10.9529 0.119106 0)
(10.9542 0.119108 0)
(10.9553 0.119182 0)
(10.956 0.119329 0)
(10.9565 0.119555 0)
(10.9568 0.119862 0)
(10.9567 0.120256 0)
(10.9564 0.12074 0)
(10.9557 0.121319 0)
(10.9548 0.121998 0)
(10.9535 0.122783 0)
(10.9519 0.123678 0)
(10.9501 0.124691 0)
(10.9478 0.125827 0)
(10.9453 0.127093 0)
(10.9423 0.128496 0)
(10.9391 0.130043 0)
(10.9354 0.131742 0)
(10.9314 0.133602 0)
(10.9269 0.135632 0)
(10.922 0.13784 0)
(10.9168 0.140236 0)
(10.911 0.142832 0)
(10.9048 0.145637 0)
(10.8981 0.148664 0)
(10.8909 0.151924 0)
(10.8832 0.155431 0)
(10.8749 0.159198 0)
(10.866 0.16324 0)
(10.8565 0.167571 0)
(10.8464 0.172209 0)
(10.8356 0.177169 0)
(10.8241 0.182469 0)
(10.8119 0.188128 0)
(10.7989 0.194166 0)
(10.785 0.200602 0)
(10.7703 0.207458 0)
(10.7546 0.214757 0)
(10.7379 0.222521 0)
(10.7202 0.230774 0)
(10.7014 0.239543 0)
(10.6814 0.248852 0)
(10.6602 0.258729 0)
(10.6376 0.269201 0)
(10.6136 0.280296 0)
(10.5881 0.292044 0)
(10.5609 0.304474 0)
(10.532 0.317615 0)
(10.5013 0.331496 0)
(10.4686 0.346148 0)
(10.4338 0.361598 0)
(10.3967 0.377874 0)
(10.3571 0.395002 0)
(10.315 0.413006 0)
(10.27 0.431908 0)
(10.2219 0.451726 0)
(10.1706 0.472475 0)
(10.1157 0.494163 0)
(10.057 0.516794 0)
(9.99422 0.540362 0)
(9.92694 0.564855 0)
(9.85484 0.590248 0)
(9.7775 0.616506 0)
(9.69451 0.643576 0)
(9.60538 0.671394 0)
(9.50961 0.699871 0)
(9.40663 0.728901 0)
(9.29583 0.758349 0)
(9.17656 0.788057 0)
(9.04811 0.817837 0)
(8.90971 0.847469 0)
(8.76057 0.876697 0)
(8.59981 0.905229 0)
(8.42653 0.93273 0)
(8.23978 0.958824 0)
(8.03858 0.983088 0)
(7.82193 1.00505 0)
(7.58885 1.02418 0)
(7.33833 1.03989 0)
(7.06945 1.05151 0)
(6.78138 1.05834 0)
(6.47345 1.0596 0)
(6.14517 1.0545 0)
(5.79639 1.04224 0)
(5.42735 1.02202 0)
(5.0388 0.993092 0)
(4.63226 0.954814 0)
(4.21012 0.906686 0)
(3.77587 0.848447 0)
(3.33423 0.780283 0)
(2.89161 0.703107 0)
(2.45635 0.618832 0)
(2.03926 0.530675 0)
(1.65256 0.443374 0)
(1.30762 0.36253 0)
(10.0001 0.020837 0)
(10.007 0.0615059 0)
(10.02 0.0997288 0)
(10.0387 0.134103 0)
(10.0623 0.163616 0)
(10.0892 0.188086 0)
(10.1177 0.208099 0)
(10.1466 0.224641 0)
(10.1751 0.23866 0)
(10.2033 0.250749 0)
(10.2314 0.26111 0)
(10.2596 0.269714 0)
(10.2882 0.27649 0)
(10.317 0.281431 0)
(10.3459 0.284612 0)
(10.3745 0.286161 0)
(10.4028 0.286212 0)
(10.4305 0.284888 0)
(10.4576 0.282291 0)
(10.4839 0.278521 0)
(10.5094 0.27368 0)
(10.5339 0.267887 0)
(10.5574 0.26127 0)
(10.5798 0.253974 0)
(10.6011 0.246149 0)
(10.6212 0.23795 0)
(10.64 0.229528 0)
(10.6576 0.221026 0)
(10.6741 0.212576 0)
(10.6895 0.204295 0)
(10.7038 0.196283 0)
(10.7172 0.188622 0)
(10.7298 0.181372 0)
(10.7415 0.174579 0)
(10.7526 0.168268 0)
(10.7631 0.162448 0)
(10.7731 0.157118 0)
(10.7827 0.152264 0)
(10.7919 0.147865 0)
(10.8007 0.143897 0)
(10.8093 0.140329 0)
(10.8177 0.137135 0)
(10.8259 0.134285 0)
(10.8339 0.131748 0)
(10.8418 0.129495 0)
(10.8495 0.127498 0)
(10.8571 0.12573 0)
(10.8646 0.124164 0)
(10.872 0.122779 0)
(10.8793 0.121553 0)
(10.8865 0.120469 0)
(10.8936 0.119511 0)
(10.9006 0.118665 0)
(10.9075 0.117921 0)
(10.9142 0.11727 0)
(10.9209 0.116703 0)
(10.9274 0.116216 0)
(10.9338 0.115802 0)
(10.94 0.115459 0)
(10.9461 0.115185 0)
(10.9521 0.114978 0)
(10.9579 0.114838 0)
(10.9636 0.114765 0)
(10.9691 0.11476 0)
(10.9744 0.114825 0)
(10.9796 0.114961 0)
(10.9846 0.115171 0)
(10.9895 0.115458 0)
(10.9941 0.115825 0)
(10.9986 0.116276 0)
(11.0029 0.116815 0)
(11.007 0.117447 0)
(11.0109 0.118175 0)
(11.0146 0.119004 0)
(11.0181 0.119941 0)
(11.0214 0.12099 0)
(11.0245 0.122158 0)
(11.0273 0.12345 0)
(11.0299 0.124875 0)
(11.0323 0.126438 0)
(11.0344 0.128148 0)
(11.0363 0.130012 0)
(11.0379 0.132039 0)
(11.0392 0.134239 0)
(11.0403 0.13662 0)
(11.041 0.139193 0)
(11.0415 0.141968 0)
(11.0416 0.144958 0)
(11.0415 0.148173 0)
(11.0409 0.151627 0)
(11.0401 0.155333 0)
(11.0388 0.159305 0)
(11.0372 0.163558 0)
(11.0352 0.168109 0)
(11.0327 0.172974 0)
(11.0299 0.17817 0)
(11.0265 0.183717 0)
(11.0227 0.189634 0)
(11.0184 0.195942 0)
(11.0135 0.202663 0)
(11.0081 0.20982 0)
(11.002 0.217436 0)
(10.9954 0.225538 0)
(10.9881 0.234151 0)
(10.98 0.243304 0)
(10.9713 0.253026 0)
(10.9618 0.263346 0)
(10.9514 0.274297 0)
(10.9401 0.285911 0)
(10.928 0.298222 0)
(10.9148 0.311265 0)
(10.9005 0.325076 0)
(10.8852 0.339691 0)
(10.8686 0.355149 0)
(10.8507 0.371487 0)
(10.8314 0.388744 0)
(10.8106 0.406959 0)
(10.7882 0.426169 0)
(10.7641 0.446412 0)
(10.7381 0.467724 0)
(10.7101 0.490139 0)
(10.68 0.51369 0)
(10.6474 0.538406 0)
(10.6123 0.564312 0)
(10.5744 0.591426 0)
(10.5335 0.619763 0)
(10.4893 0.649327 0)
(10.4415 0.680114 0)
(10.3897 0.71211 0)
(10.3336 0.745285 0)
(10.2728 0.779596 0)
(10.2067 0.814979 0)
(10.135 0.851353 0)
(10.0569 0.888613 0)
(9.97191 0.926628 0)
(9.87931 0.965239 0)
(9.77832 1.00426 0)
(9.6681 1.04345 0)
(9.54774 1.08254 0)
(9.41623 1.12123 0)
(9.27249 1.15914 0)
(9.11536 1.19585 0)
(8.94359 1.23088 0)
(8.75585 1.26368 0)
(8.55075 1.29363 0)
(8.32689 1.32006 0)
(8.08279 1.34218 0)
(7.81703 1.35918 0)
(7.52821 1.37014 0)
(7.21504 1.37407 0)
(6.87643 1.36992 0)
(6.51158 1.35655 0)
(6.12013 1.3328 0)
(5.70232 1.29754 0)
(5.25909 1.24969 0)
(4.79249 1.18843 0)
(4.30595 1.11325 0)
(3.80469 1.02414 0)
(3.29597 0.921804 0)
(2.78964 0.808268 0)
(10.0001 0.0174419 0)
(10.0056 0.0516766 0)
(10.016 0.0842457 0)
(10.0311 0.114219 0)
(10.0503 0.140789 0)
(10.0729 0.163584 0)
(10.0976 0.182739 0)
(10.1233 0.198759 0)
(10.1494 0.212282 0)
(10.1756 0.223829 0)
(10.2017 0.233687 0)
(10.2281 0.241932 0)
(10.2547 0.248548 0)
(10.2816 0.253521 0)
(10.3085 0.256895 0)
(10.3354 0.258761 0)
(10.3621 0.259238 0)
(10.3883 0.258444 0)
(10.4139 0.256484 0)
(10.4389 0.253459 0)
(10.4632 0.249467 0)
(10.4867 0.244612 0)
(10.5093 0.239008 0)
(10.531 0.232779 0)
(10.5516 0.226056 0)
(10.5712 0.218971 0)
(10.5897 0.211654 0)
(10.6072 0.204231 0)
(10.6237 0.196816 0)
(10.6391 0.189513 0)
(10.6537 0.182409 0)
(10.6674 0.17558 0)
(10.6803 0.169081 0)
(10.6925 0.162956 0)
(10.704 0.157232 0)
(10.715 0.151924 0)
(10.7256 0.147034 0)
(10.7357 0.142558 0)
(10.7454 0.138482 0)
(10.7548 0.134789 0)
(10.764 0.131458 0)
(10.7729 0.128465 0)
(10.7817 0.125787 0)
(10.7903 0.123398 0)
(10.7987 0.121274 0)
(10.807 0.11939 0)
(10.8152 0.117723 0)
(10.8233 0.11625 0)
(10.8313 0.114952 0)
(10.8392 0.11381 0)
(10.8471 0.112809 0)
(10.8548 0.111933 0)
(10.8625 0.111173 0)
(10.8701 0.110516 0)
(10.8776 0.109955 0)
(10.885 0.109482 0)
(10.8923 0.109092 0)
(10.8995 0.10878 0)
(10.9066 0.108544 0)
(10.9137 0.10838 0)
(10.9206 0.108288 0)
(10.9274 0.108267 0)
(10.9341 0.108317 0)
(10.9407 0.108439 0)
(10.9472 0.108635 0)
(10.9536 0.108907 0)
(10.9598 0.109257 0)
(10.966 0.109687 0)
(10.972 0.110203 0)
(10.9778 0.110806 0)
(10.9836 0.111501 0)
(10.9892 0.112293 0)
(10.9946 0.113186 0)
(10.9999 0.114186 0)
(11.0051 0.115297 0)
(11.0101 0.116526 0)
(11.0149 0.117879 0)
(11.0196 0.119363 0)
(11.0242 0.120984 0)
(11.0285 0.12275 0)
(11.0327 0.12467 0)
(11.0367 0.126751 0)
(11.0405 0.129003 0)
(11.0441 0.131435 0)
(11.0475 0.134058 0)
(11.0507 0.13688 0)
(11.0537 0.139916 0)
(11.0565 0.143175 0)
(11.0591 0.14667 0)
(11.0614 0.150416 0)
(11.0634 0.154427 0)
(11.0652 0.158716 0)
(11.0668 0.163301 0)
(11.068 0.168198 0)
(11.069 0.173425 0)
(11.0696 0.179 0)
(11.07 0.184943 0)
(11.07 0.191276 0)
(11.0697 0.198021 0)
(11.069 0.2052 0)
(11.0679 0.212838 0)
(11.0664 0.220962 0)
(11.0646 0.229597 0)
(11.0622 0.238773 0)
(11.0594 0.24852 0)
(11.0562 0.258869 0)
(11.0524 0.269852 0)
(11.0481 0.281505 0)
(11.0432 0.293863 0)
(11.0377 0.306963 0)
(11.0316 0.320845 0)
(11.0248 0.335548 0)
(11.0173 0.351113 0)
(11.0091 0.367585 0)
(11 0.385006 0)
(10.9901 0.403422 0)
(10.9793 0.422879 0)
(10.9674 0.443422 0)
(10.9545 0.465099 0)
(10.9405 0.487957 0)
(10.9252 0.512041 0)
(10.9086 0.537397 0)
(10.8906 0.564069 0)
(10.871 0.592099 0)
(10.8497 0.621525 0)
(10.8265 0.652382 0)
(10.8012 0.6847 0)
(10.7738 0.718501 0)
(10.7438 0.753803 0)
(10.7111 0.79061 0)
(10.6754 0.828918 0)
(10.6363 0.868709 0)
(10.5935 0.909951 0)
(10.5465 0.952593 0)
(10.4948 0.996564 0)
(10.438 1.04177 0)
(10.3754 1.0881 0)
(10.3064 1.13538 0)
(10.2301 1.18344 0)
(10.1456 1.23205 0)
(10.0522 1.28092 0)
(9.94854 1.32974 0)
(9.83362 1.3781 0)
(9.70609 1.42558 0)
(9.56453 1.47164 0)
(9.40742 1.51568 0)
(9.23308 1.55702 0)
(9.03977 1.59487 0)
(8.8256 1.62836 0)
(8.58864 1.65652 0)
(8.32691 1.67825 0)
(8.03844 1.69238 0)
(7.72138 1.69759 0)
(7.37399 1.6925 0)
(6.99482 1.67561 0)
(6.58291 1.64539 0)
(6.13797 1.6003 0)
(5.66065 1.53885 0)
(5.15276 1.45976 0)
(4.61789 1.36223 0)
(10 0.0147645 0)
(10.0046 0.0438382 0)
(10.0132 0.0717481 0)
(10.0257 0.0978078 0)
(10.0419 0.121427 0)
(10.0611 0.142213 0)
(10.0826 0.160095 0)
(10.1056 0.175285 0)
(10.1293 0.188164 0)
(10.1535 0.199118 0)
(10.1779 0.208428 0)
(10.2025 0.216231 0)
(10.2274 0.222566 0)
(10.2526 0.22744 0)
(10.278 0.230881 0)
(10.3033 0.232955 0)
(10.3285 0.233755 0)
(10.3533 0.233386 0)
(10.3778 0.231951 0)
(10.4016 0.229547 0)
(10.4249 0.226267 0)
(10.4474 0.222208 0)
(10.4692 0.217471 0)
(10.4901 0.212163 0)
(10.5102 0.206397 0)
(10.5293 0.200286 0)
(10.5475 0.193945 0)
(10.5648 0.187481 0)
(10.5812 0.180993 0)
(10.5966 0.174572 0)
(10.6113 0.168297 0)
(10.6251 0.162235 0)
(10.6382 0.156437 0)
(10.6506 0.150944 0)
(10.6625 0.145785 0)
(10.6738 0.140976 0)
(10.6846 0.136525 0)
(10.695 0.132432 0)
(10.705 0.12869 0)
(10.7147 0.125287 0)
(10.7242 0.122206 0)
(10.7334 0.119431 0)
(10.7424 0.11694 0)
(10.7512 0.114714 0)
(10.7598 0.112732 0)
(10.7683 0.110972 0)
(10.7767 0.109416 0)
(10.785 0.108044 0)
(10.7932 0.106838 0)
(10.8013 0.105784 0)
(10.8093 0.104867 0)
(10.8172 0.104074 0)
(10.825 0.103394 0)
(10.8327 0.102818 0)
(10.8404 0.102339 0)
(10.848 0.10195 0)
(10.8555 0.101645 0)
(10.8629 0.10142 0)
(10.8702 0.101273 0)
(10.8775 0.101201 0)
(10.8846 0.101203 0)
(10.8917 0.101278 0)
(10.8987 0.101428 0)
(10.9056 0.101652 0)
(10.9123 0.101952 0)
(10.919 0.10233 0)
(10.9256 0.102789 0)
(10.9321 0.103332 0)
(10.9385 0.103962 0)
(10.9447 0.104682 0)
(10.9509 0.105498 0)
(10.9569 0.106412 0)
(10.9628 0.107431 0)
(10.9687 0.10856 0)
(10.9743 0.109804 0)
(10.9799 0.111168 0)
(10.9853 0.112661 0)
(10.9907 0.114288 0)
(10.9958 0.116056 0)
(11.0009 0.117975 0)
(11.0058 0.120051 0)
(11.0105 0.122293 0)
(11.0151 0.124712 0)
(11.0196 0.127315 0)
(11.0239 0.130115 0)
(11.028 0.133122 0)
(11.032 0.136347 0)
(11.0358 0.139803 0)
(11.0394 0.143503 0)
(11.0429 0.14746 0)