/*--------------------------------*- C++ -*----------------------------------*\
| =========                 |                                                 |
| \\      /  F ield         | OpenFOAM: The Open Source CFD Toolbox           |
|  \\    /   O peration     | Version:  2306                                  |
|   \\  /    A nd           | Website:  www.openfoam.com                      |
|    \\/     M anipulation  |                                                 |
\*---------------------------------------------------------------------------*/
FoamFile
{
    version     2.0;
    format      ascii;
    arch        "LSB;label=32;scalar=64";
    class       volScalarField;
    location    "0.125";
    object      p;
}
// * * * * * * * * * * * * * * * * * * * * * * * * * * * * * * * * * * * * * //

dimensions      [0 2 -2 0 0 0 0];

internalField   nonuniform List<scalar> 
4400
(
427.129
426.114
425.206
424.534
424.085
423.778
423.533
423.304
423.07
422.829
422.583
422.335
422.087
421.841
421.596
421.352
421.107
420.863
420.618
420.372
420.126
419.88
419.634
419.388
419.143
418.9
418.659
418.419
418.183
417.95
417.721
417.496
417.276
417.063
416.856
416.656
416.465
416.282
416.11
415.948
415.798
415.661
415.537
415.428
415.336
415.26
415.202
415.163
415.144
415.147
415.172
415.22
415.292
415.388
415.508
415.65
415.815
415.998
416.196
416.403
416.611
416.81
416.987
417.128
417.215
417.227
417.131
416.893
416.552
416.275
416.431
417.055
417.891
418.347
418.097
417.4
416.965
416.856
416.759
416.615
425.667
425.325
424.892
424.451
424.059
423.735
423.466
423.23
423.006
422.781
422.55
422.313
422.071
421.828
421.584
421.34
421.097
420.853
420.609
420.365
420.12
419.875
419.63
419.386
419.142
418.9
418.659
418.42
418.184
417.952
417.722
417.498
417.278
417.065
416.858
416.658
416.466
416.282
416.109
415.946
415.794
415.654
415.528
415.416
415.319
415.239
415.177
415.133
415.109
415.106
415.124
415.166
415.23
415.319
415.431
415.566
415.722
415.897
416.089
416.29
416.494
416.691
416.87
417.018
417.113
417.131
417.039
416.802
416.475
416.246
416.527
417.511
418.82
419.538
418.332
416.466
415.909
416.206
416.474
416.707
425.121
424.956
424.698
424.38
424.046
423.732
423.45
423.2
422.971
422.749
422.525
422.295
422.06
421.82
421.578
421.334
421.091
420.848
420.605
420.361
420.117
419.873
419.629
419.386
419.143
418.901
418.661
418.423
418.187
417.955
417.726
417.501
417.281
417.066
416.858
416.656
416.462
416.276
416.099
415.931
415.774
415.629
415.496
415.376
415.271
415.18
415.106
415.048
415.008
414.986
414.985
415.003
415.042
415.101
415.181
415.282
415.401
415.535
415.683
415.839
415.997
416.15
416.285
416.393
416.456
416.457
416.396
416.286
416.21
416.323
416.74
417.406
418.015
418.074
417.39
416.589
416.739
417.438
417.37
416.102
424.706
424.607
424.432
424.199
423.934
423.661
423.398
423.153
422.923
422.702
422.482
422.259
422.031
421.797
421.56
421.319
421.078
420.836
420.594
420.351
420.109
419.866
419.624
419.381
419.139
418.898
418.658
418.421
418.185
417.952
417.723
417.497
417.277
417.06
416.849
416.645
416.447
416.257
416.075
415.902
415.738
415.585
415.443
415.312
415.194
415.089
414.999
414.922
414.861
414.816
414.788
414.776
414.781
414.804
414.842
414.897
414.965
415.045
415.133
415.226
415.319
415.404
415.474
415.521
415.538
415.523
415.491
415.471
415.522
415.679
415.952
416.283
416.554
416.664
416.561
416.423
416.35
416.193
415.634
415.072
424.406
424.338
424.213
424.038
423.827
423.593
423.355
423.121
422.894
422.673
422.453
422.233
422.009
421.78
421.546
421.309
421.07
420.83
420.588
420.346
420.104
419.862
419.62
419.377
419.135
418.895
418.655
418.417
418.181
417.948
417.717
417.49
417.268
417.048
416.835
416.627
416.425
416.23
416.043
415.863
415.692
415.529
415.377
415.234
415.102
414.982
414.873
414.777
414.694
414.624
414.566
414.522
414.492
414.473
414.468
414.473
414.487
414.508
414.531
414.555
414.576
414.588
414.585
414.565
414.528
414.478
414.43
414.405
414.424
414.486
414.598
414.744
414.894
415.024
415.094
415.075
415.018
414.997
415.15
415.562
424.189
424.137
424.039
423.901
423.727
423.525
423.31
423.088
422.867
422.647
422.428
422.21
421.988
421.762
421.531
421.296
421.061
420.821
420.58
420.339
420.097
419.856
419.613
419.371
419.129
418.888
418.648
418.41
418.172
417.938
417.706
417.477
417.253
417.03
416.814
416.602
416.395
416.195
416.001
415.814
415.635
415.462
415.299
415.143
414.997
414.861
414.734
414.618
414.512
414.416
414.329
414.251
414.185
414.126
414.076
414.031
413.991
413.953
413.912
413.867
413.818
413.756
413.681
413.592
413.489
413.382
413.275
413.18
413.108
413.052
413.033
413.038
413.081
413.126
413.165
413.169
413.226
413.405
413.818
414.428
424.03
423.987
423.906
423.79
423.639
423.461
423.265
423.057
422.843
422.626
422.408
422.191
421.97
421.745
421.516
421.284
421.051
420.812
420.573
420.332
420.09
419.849
419.605
419.363
419.121
418.879
418.638
418.399
418.161
417.925
417.691
417.46
417.233
417.007
416.787
416.57
416.358
416.153
415.952
415.757
415.569
415.387
415.212
415.043
414.882
414.73
414.585
414.448
414.319
414.197
414.08
413.971
413.868
413.77
413.676
413.582
413.49
413.394
413.29
413.181
413.06
412.929
412.78
412.617
412.441
412.255
412.066
411.874
411.695
411.519
411.366
411.236
411.137
411.062
411.004
410.982
411.048
411.258
411.65
412.245
423.919
423.88
423.809
423.707
423.571
423.409
423.227
423.03
422.823
422.608
422.393
422.176
421.955
421.731
421.503
421.274
421.042
420.804
420.565
420.324
420.083
419.841
419.597
419.354
419.111
418.869
418.627
418.386
418.147
417.909
417.673
417.439
417.208
416.979
416.755
416.533
416.316
416.104
415.896
415.694
415.496
415.304
415.118
414.935
414.76
414.591
414.427
414.27
414.118
413.97
413.825
413.685
413.545
413.409
413.271
413.132
412.989
412.837
412.674
412.499
412.314
412.109
411.888
411.647
411.388
411.114
410.823
410.528
410.227
409.926
409.631
409.346
409.099
408.863
408.687
408.553
408.518
408.627
408.866
409.334
423.847
423.811
423.747
423.652
423.523
423.372
423.2
423.011
422.807
422.595
422.383
422.166
421.945
421.72
421.494
421.267
421.034
420.796
420.558
420.317
420.076
419.833
419.588
419.345
419.1
418.857
418.614
418.371
418.13
417.889
417.651
417.414
417.179
416.947
416.718
416.491
416.268
416.05
415.834
415.625
415.417
415.215
415.017
414.821
414.632
414.446
414.264
414.086
413.912
413.739
413.566
413.394
413.221
413.046
412.869
412.683
412.493
412.285
412.066
411.83
411.577
411.304
411.005
410.686
410.336
409.966
409.569
409.156
408.73
408.286
407.836
407.387
406.96
406.554
406.195
405.89
405.678
405.582
405.625
405.831
423.81
423.777
423.717
423.624
423.498
423.354
423.186
423
422.798
422.588
422.378
422.16
421.938
421.713
421.488
421.261
421.028
420.79
420.551
420.31
420.069
419.825
419.578
419.334
419.088
418.844
418.598
418.353
418.11
417.867
417.626
417.386
417.147
416.911
416.677
416.445
416.216
415.991
415.768
415.55
415.333
415.121
414.911
414.701
414.499
414.296
414.097
413.899
413.703
413.504
413.306
413.102
412.898
412.687
412.467
412.242
412.001
411.746
411.468
411.175
410.856
410.512
410.141
409.733
409.297
408.822
408.313
407.775
407.21
406.613
405.992
405.358
404.728
404.118
403.528
402.999
402.535
402.181
401.959
401.86
423.809
423.777
423.717
423.621
423.497
423.354
423.185
422.998
422.795
422.587
422.377
422.157
421.934
421.709
421.486
421.258
421.022
420.785
420.544
420.304
420.061
419.815
419.568
419.322
419.075
418.829
418.581
418.334
418.089
417.842
417.599
417.355
417.112
416.872
416.633
416.395
416.161
415.928
415.698
415.471
415.245
415.022
414.801
414.579
414.362
414.143
413.926
413.71
413.491
413.272
413.044
412.815
412.577
412.333
412.076
411.807
411.525
411.216
410.891
410.535
410.156
409.742
409.294
408.804
408.274
407.694
407.066
406.398
405.682
404.922
404.107
403.272
402.409
401.541
400.708
399.855
399.119
398.438
397.876
397.496
423.842
423.81
423.747
423.646
423.52
423.371
423.197
423.005
422.799
422.593
422.38
422.158
421.935
421.71
421.487
421.257
421.019
420.78
420.539
420.298
420.054
419.806
419.557
419.31
419.061
418.813
418.563
418.314
418.066
417.816
417.569
417.321
417.075
416.829
416.585
416.342
416.101
415.862
415.625
415.389
415.153
414.922
414.687
414.454
414.222
413.989
413.755
413.521
413.281
413.039
412.789
412.529
412.265
411.985
411.694
411.388
411.059
410.709
410.328
409.922
409.478
408.999
408.476
407.902
407.277
406.595
405.84
405.041
404.167
403.213
402.222
401.116
400.022
398.864
397.668
396.545
395.375
394.362
393.43
392.633
423.912
423.878
423.808
423.699
423.566
423.406
423.222
423.021
422.812
422.604
422.386
422.163
421.939
421.715
421.491
421.257
421.018
420.777
420.536
420.293
420.046
419.796
419.547
419.297
419.047
418.796
418.544
418.291
418.04
417.788
417.537
417.285
417.034
416.785
416.535
416.287
416.039
415.794
415.548
415.305
415.059
414.818
414.573
414.327
414.084
413.834
413.587
413.331
413.074
412.811
412.534
412.255
411.956
411.652
411.323
410.982
410.615
410.218
409.795
409.332
408.831
408.291
407.693
407.034
406.331
405.519
404.671
403.708
402.677
401.55
400.291
398.996
397.533
396.079
394.542
392.914
391.423
389.885
388.502
387.362
424.022
423.984
423.902
423.781
423.634
423.455
423.257
423.045
422.831
422.618
422.397
422.174
421.949
421.725
421.497
421.26
421.018
420.775
420.533
420.287
420.039
419.787
419.536
419.285
419.032
418.779
418.523
418.269
418.013
417.759
417.503
417.248
416.992
416.738
416.482
416.229
415.975
415.722
415.47
415.218
414.964
414.713
414.457
414.202
413.943
413.682
413.418
413.147
412.87
412.587
412.291
411.983
411.665
411.325
410.974
410.591
410.193
409.752
409.289
408.77
408.223
407.618
406.952
406.222
405.416
404.531
403.519
402.471
401.219
399.917
398.463
396.785
395.119
393.204
391.19
389.224
387.051
384.997
383.107
381.332
424.18
424.131
424.034
423.893
423.719
423.517
423.299
423.075
422.855
422.636
422.413
422.189
421.964
421.738
421.505
421.265
421.02
420.775
420.531
420.283
420.032
419.779
419.525
419.273
419.017
418.762
418.502
418.246
417.986
417.728
417.468
417.209
416.948
416.689
416.429
416.169
415.91
415.649
415.39
415.129
414.867
414.607
414.339
414.076
413.804
413.53
413.255
412.962
412.678
412.364
412.059
411.723
411.382
411.023
410.632
410.232
409.786
409.319
408.809
408.253
407.643
407.003
406.245
405.47
404.58
403.56
402.524
401.23
399.903
398.382
396.621
394.779
392.616
390.322
387.862
385.153
382.45
379.649
376.928
374.564
424.397
424.331
424.205
424.029
423.816
423.583
423.343
423.107
422.88
422.657
422.435
422.209
421.982
421.753
421.514
421.271
421.021
420.776
420.529
420.279
420.026
419.77
419.516
419.26
419.002
418.743
418.481
418.221
417.958
417.696
417.432
417.169
416.903
416.639
416.373
416.107
415.844
415.573
415.312
415.037
414.774
414.498
414.227
413.95
413.669
413.385
413.091
412.791
412.485
412.157
411.833
411.477
411.115
410.736
410.313
409.896
409.41
408.913
408.375
407.755
407.141
406.405
405.625
404.771
403.799
402.719
401.543
400.188
398.647
396.979
395.002
392.765
390.348
387.48
384.361
381.157
377.395
373.618
370.142
366.458
424.697
424.599
424.423
424.187
423.921
423.649
423.386
423.138
422.906
422.683
422.46
422.231
422
421.765
421.522
421.274
421.023
420.776
420.526
420.274
420.019
419.76
419.505
419.245
418.986
418.722
418.459
418.194
417.929
417.663
417.394
417.127
416.855
416.588
416.316
416.044
415.775
415.497
415.231
414.946
414.678
414.39
414.112
413.826
413.527
413.245
412.92
412.633
412.29
411.965
411.619
411.24
410.876
410.454
410.03
409.578
409.068
408.549
407.966
407.327
406.658
405.903
405.024
404.189
403.055
401.978
400.713
399.179
397.644
395.72
393.481
391.134
388.188
384.736
381.216
376.849
371.977
367.228
361.975
356.84
425.114
424.947
424.687
424.366
424.033
423.72
423.436
423.184
422.952
422.729
422.501
422.265
422.027
421.784
421.537
421.284
421.032
420.781
420.53
420.274
420.017
419.756
419.498
419.235
418.972
418.705
418.439
418.17
417.902
417.631
417.358
417.087
416.81
416.539
416.259
415.985
415.707
415.425
415.151
414.86
414.587
414.287
414.008
413.702
413.407
413.104
412.781
412.48
412.123
411.795
411.432
411.028
410.675
410.195
409.788
409.304
408.762
408.244
407.614
406.948
406.28
405.421
404.586
403.639
402.452
401.389
399.963
398.378
396.815
394.576
392.348
389.686
386.313
382.598
378.272
372.836
366.547
359.878
352.335
344.955
425.659
425.315
424.88
424.436
424.045
423.722
423.451
423.213
422.987
422.76
422.524
422.28
422.035
421.79
421.539
421.287
421.034
420.783
420.529
420.271
420.012
419.748
419.487
419.222
418.956
418.687
418.419
418.146
417.874
417.601
417.321
417.05
416.763
416.492
416.203
415.928
415.642
415.356
415.077
414.778
414.502
414.193
413.911
413.593
413.298
412.968
412.66
412.332
411.967
411.657
411.241
410.874
410.502
409.993
409.604
409.087
408.528
408.001
407.362
406.653
405.982
405.079
404.267
403.214
402.077
400.926
399.333
397.937
395.839
394.064
391.127
388.779
384.779
380.872
376.261
369.508
361.401
352.722
339.368
327.963
427.119
426.104
425.196
424.52
424.07
423.764
423.517
423.285
423.051
422.807
422.555
422.301
422.05
421.801
421.548
421.297
421.042
420.791
420.533
420.274
420.012
419.749
419.484
419.218
418.949
418.679
418.409
418.134
417.861
417.583
417.304
417.028
416.741
416.468
416.174
415.901
415.606
415.326
415.036
414.742
414.458
414.153
413.86
413.559
413.24
412.939
412.606
412.271
411.941
411.577
411.195
410.83
410.399
409.952
409.54
408.974
408.492
407.883
407.296
406.513
405.919
404.918
404.162
403.05
402.029
400.622
399.349
397.49
395.829
393.563
391.148
388.36
384.524
380.26
375.382
367.296
360.09
346.872
329.915
304.682
416.673
416.83
417.02
416.696
415.898
415.236
414.643
413.634
411.836
409.042
406.098
404.012
403.042
403.316
404.513
406.124
408.564
412.018
414.732
416.239
416.981
417.056
417.07
416.818
416.216
415.68
414.796
413.324
411.023
407.856
404.672
402.446
401.533
402.04
403.512
405.193
407.264
410.423
413.32
415.334
415.277
415.681
417.298
418.135
418.031
417.096
415.561
413.142
409.717
405.708
401.958
399.361
398.471
399.226
401.136
403.332
405.357
408.194
411.064
413.36
415.955
417.934
418.563
418.549
419.318
418.81
416.728
412.863
408.117
403.105
398.331
394.859
393.666
394.666
397.294
400.587
403.047
405.496
408.126
410.287
416.396
417.44
418.718
421.099
421.278
419.337
416.833
412.372
406.502
400.259
394.387
389.913
388.062
389.013
392.323
397.16
400.395
402.438
404.983
407.158
415.29
416.518
418.238
419.737
420.084
419.211
416.054
411
404.762
398.024
391.565
386.158
383.42
383.906
387.443
393.957
398.297
400.418
403.276
406.301
413.098
414.272
415.636
416.78
417.224
416.441
413.924
409.337
403.139
396.392
389.724
384.091
380.923
380.962
384.207
392.143
398.022
401.584
404.604
407.57
409.98
410.853
411.794
412.57
412.835
412.141
410.079
406.511
401.302
395.034
388.908
383.73
380.823
380.881
384.399
392.102
399.618
404.907
407.396
409.53
406.208
406.716
407.272
407.716
407.77
407.119
405.583
402.77
398.766
393.833
389.268
385.383
384.087
385.308
389.195
393.954
397.883
404.302
409.335
412.521
401.929
402.106
402.334
402.502
402.471
401.963
400.903
398.96
396.476
393.57
391.156
389.804
390.471
394.325
400.495
407.298
412.2
412.783
412.133
416.893
397.194
397.097
397.094
397.104
397.105
396.91
396.467
395.71
394.741
394.125
394.393
397.043
401.557
407.915
404.664
391.732
389.648
401.74
409.743
419.406
392.095
391.667
391.499
391.557
391.67
391.888
392.252
392.677
393.263
394.238
395.445
396.945
398.129
398.842
400.071
402.926
406.664
415.115
422.681
438.629
386.345
385.749
385.445
385.461
385.98
386.703
387.694
389.105
391.049
393.446
395.959
398.782
402.649
407.708
413.978
419.335
426.512
429.603
422.132
429.698
379.963
378.976
378.588
378.767
379.427
380.851
382.812
384.756
386.992
389.87
393.501
398.108
403.645
409.091
413.316
416.933
420.825
426.755
432.348
436.723
372.469
371.075
370.571
370.911
372.136
374
376.859
380.598
384.51
388.189
391.675
396.012
401.413
407.635
414.032
421.362
429.729
437.1
439.57
439.103
363.515
361.751
360.908
361.558
363.563
366.124
368.935
372.616
377.623
383.189
389.076
395.4
401.69
408.137
415.208
423.506
431.761
436.917
438.836
438.696
352.481
349.553
349.057
350.714
353.947
358.655
363.205
367.637
371.708
376.554
383.347
391.149
398.924
406.764
414.367
422.207
429.848
434.946
436.919
437.437
338.518
334.411
333.914
336.729
340.918
345.242
351.184
358.918
366.137
372.604
379.039
386.113
394.42
402.868
410.185
417.245
424.451
430.064
433.146
434.029
317.548
314.444
318.478
324.887
330.576
334.504
338.573
345.636
355.128
364.323
372.225
379.613
387.882
396.392
403.772
410.681
417.657
423.523
426.992
428.36
276.608
280.48
294.065
304.802
313.545
321.955
330.738
338.598
346.042
354.855
363.911
372.43
380.858
389.266
396.953
403.785
410.182
415.749
419.536
421.35
233.38
263.956
275.113
281.254
287.594
297.044
311.342
324.525
334.692
343.936
353.618
363.295
372.278
380.772
388.656
395.44
401.56
406.986
410.657
412.347
261.26
265.6
270.502
270.141
272.805
278.184
289.649
306.108
320.349
330.916
341.612
352.715
362.411
370.934
378.733
385.578
391.59
396.686
400.314
402.192
249.857
257.136
259.839
263.429
266.244
265.743
269.632
284.209
302.111
316.708
329.147
340.995
351.259
359.922
367.673
374.549
380.571
385.594
389.072
390.765
250.111
251.801
254.627
257.84
262.853
256.811
252.631
261.896
281.714
299.173
313.73
326.956
338.15
347.501
355.674
362.75
368.637
373.393
376.884
378.779
241.424
242.845
243.996
245.554
261.977
247.431
242.167
242.765
259.92
280.734
298.282
313.016
325.109
334.933
343.271
350.362
356.233
360.986
364.378
366.026
234.947
235.747
234.684
237.386
247.032
236.917
231.986
228.226
240.112
261.596
281.265
298.098
311.374
321.884
330.705
338.03
343.701
348.135
351.408
353.262
226.71
227.002
225.649
227.59
224.32
222.157
214.791
212.933
221.16
242.48
263.833
282.073
296.427
307.899
317.444
325.124
330.929
335.495
338.818
340.383
219.315
219.752
217.012
216.587
207.057
199.484
190.642
193.54
204.288
225.336
247.959
267.417
282.367
294.33
304.476
312.566
318.395
322.849
326.043
327.758
212.685
212.002
208.568
204.68
192.95
177.287
168.85
173.35
184.691
207.727
233.287
254.358
269.593
281.698
292.107
300.325
306.273
310.893
314.24
315.697
207.264
204.781
200.988
195.534
184.244
163.325
152.589
156.123
168.143
192.764
219.717
241.718
257.44
269.833
280.55
288.982
295.041
299.586
302.682
304.286
206.231
203.943
199.512
192.939
182.257
158.597
147.7
149.138
158.745
181.72
208.757
230.824
246.737
259.355
270.13
278.348
284.338
289.065
292.443
293.92
207.963
205.451
201.245
194.078
186.431
161.486
153.991
151.031
156.56
177.046
202.083
222.608
238.161
250.767
261.406
269.441
275.385
279.877
282.735
284.228
210.271
207.797
203.998
198.028
193.381
174.177
169.869
159.867
162.399
178.797
200.13
218.143
232.535
244.387
254.256
261.789
267.478
271.8
274.796
276.205
211.581
210.79
208.276
203.855
201.045
192.585
185.944
173.774
174.112
186.12
202.796
217.638
230.056
239.998
248.622
255.768
261.354
265.319
267.672
269.018
210.809
210.67
210.898
209.087
207.769
205.384
199
189.067
189.229
197.024
208.356
220.215
230.223
237.83
245.17
251.284
255.981
259.463
262.065
263.477
211.169
210.627
212.429
212.793
213.177
213.978
209.139
203.579
203.434
208.358
215.837
224.446
231.658
237.642
243.308
248.243
252.365
255.366
257.377
258.377
217.506
215.062
214.6
215.48
217.298
220.701
219.337
216.545
215.07
218.463
223.37
229.05
234.05
238.542
242.814
246.562
249.629
251.81
253.621
254.69
220.59
217.403
215.15
216.058
219.247
224.436
227.157
226.812
225.015
226.924
229.053
232.356
235.576
238.711
241.951
244.916
247.588
249.608
251.102
251.687
218.908
215.469
213.356
214.332
218.267
224.577
230.425
232.75
232.39
232.293
232.139
233.898
235.807
238.24
241.047
243.683
245.864
247.383
248.389
249.278
214.525
211.939
209.866
210.902
215.058
221.534
229.023
233.525
234.8
233.606
232.896
233.823
235.016
237.12
239.466
241.685
243.823
245.659
247.181
247.751
208.333
206.102
204.492
205.677
209.758
215.951
223.802
229.389
232.051
231.33
231.309
232.062
233.383
235.757
238.327
240.785
242.888
244.387
245.112
245.832
201.153
199.423
198.024
199.092
202.737
208.409
215.716
221.912
226.31
226.408
228.033
229.192
231.373
234.157
236.799
239.186
241.304
243.186
245.045
245.812
193.54
191.938
190.599
191.336
194.419
199.448
205.976
212.83
218.157
220.476
223.293
225.828
228.634
232.15
235.311
238.499
241.318
243.292
244.311
244.851
185.892
184.334
182.801
183.021
185.314
189.575
195.4
202.549
208.726
213.097
217.952
221.989
225.954
230.541
234.334
237.646
240.442
242.605
244.935
246.135
178.495
176.838
174.998
174.569
175.963
179.314
184.477
191.504
198.26
205.093
211.899
217.627
223.14
228.53
233.043
237.291
241.184
244.244
246.207
246.965
171.704
169.938
167.702
166.506
166.885
169.251
173.666
180.077
187.601
196.997
205.696
213.124
220.458
227.315
233.093
238.015
242.095
245.154
247.461
249.214
166.143
164.123
161.423
159.419
158.741
159.995
163.639
169.399
178.255
189.599
199.72
209.194
218.375
226.159
232.659
238.513
243.721
248.045
251.498
253.085
162.394
160.009
156.799
153.989
152.365
152.684
155.539
160.995
170.959
183.216
195.08
206.453
216.807
225.834
233.823
241.04
247.081
251.624
254.469
256.194
160.824
158.147
154.344
150.814
148.33
147.973
150.125
155.381
165.86
178.505
192.545
205.513
216.823
226.79
235.623
243.238
249.59
255.169
260.496
263.396
161.666
158.764
154.445
150.239
147.213
146.034
147.516
152.773
163.085
176.185
191.54
205.481
217.524
228.564
238.483
247.217
255.236
262.199
266.653
268.46
165.144
162.06
157.407
152.56
148.924
146.933
147.831
153.029
163.119
176.151
191.891
206.945
220.297
232.188
242.584
251.588
259.331
266.146
273.298
278.126
171.47
168.173
163.238
158.066
153.695
150.978
151.368
156.32
165.876
178.711
194.821
210.285
223.95
235.922
246.38
256.041
265.607
274.847
282.528
287
180.63
177.146
171.867
166.395
161.544
158.132
158.05
162.598
171.389
183.898
199.586
214.774
228.529
240.933
252.262
262.415
271.456
280.039
288.659
294.738
192.178
188.827
183.441
177.621
172.324
168.22
167.556
171.472
179.282
191.274
206.157
220.568
234.127
246.702
257.737
266.967
275.431
284.326
295.488
305.73
205.67
202.536
197.404
191.645
186.103
181.291
179.74
182.757
189.537
200.459
213.647
226.567
239.466
251.649
262.889
272.684
281.479
290.713
300.214
304.373
220.858
217.826
212.942
207.455
201.902
196.699
194.248
196.028
201.361
210.539
221.751
233.068
245.231
257.249
268.563
278.438
285.782
286.857
284.217
298.692
237.151
234.28
229.564
224.43
219.127
213.746
210.394
210.65
214.204
221.158
230.002
239.776
250.655
261.045
271.021
280.185
288.323
294.112
284.85
290.824
253.596
251.001
246.465
241.553
236.593
231.304
227.277
225.947
227.236
231.417
237.694
245.59
254.507
263.309
272.932
283.416
293.863
302.257
302.924
293.468
269.663
267.174
262.736
257.847
253.096
247.934
243.351
240.483
239.492
240.812
244.265
250.18
257.518
265.382
275.336
287.139
299.165
307.376
306.263
301.545
285.445
282.736
277.966
272.694
267.795
262.519
257.361
253.231
250.172
248.734
249.625
253.28
258.628
266.035
276.171
287.609
299.388
311.622
306.767
303.826
300.564
297.661
292.399
286.279
280.675
274.867
268.956
263.622
258.922
255.278
253.295
254.052
257.097
263.777
273.898
285.699
298.003
306.032
306.665
302.629
314.709
311.722
306.021
298.99
292.368
285.66
278.724
272.262
266.134
260.159
255.146
252.301
252.065
257.022
266.103
277.334
288.63
295.887
297.831
298.04
327.921
324.969
319.028
311.342
303.753
295.995
287.87
279.91
271.983
263.794
255.218
247.688
242.71
243.92
249.855
258.22
267.327
277.583
281.748
285.726
339.789
337.126
331.381
323.525
315.241
306.523
296.89
286.956
276.783
265.622
253.129
240.419
229.602
224.89
225.893
229.982
237.582
248.387
257.677
263.679
349.891
347.668
342.578
334.993
326.387
316.904
305.918
293.661
280.408
266.095
249.787
231.63
213.663
201.303
196.315
196.5
203.03
213.596
227.128
235.255
357.338
355.943
351.847
344.995
336.386
326.479
314.315
299.856
283.684
265.88
245.601
221.932
196.834
176.861
166.005
162.551
168.113
180.47
196.296
206.605
362.944
362.045
358.853
352.818
344.516
334.27
321.464
305.602
286.842
265.927
241.956
213.4
181.835
154.674
138.738
133.062
138.325
153.229
171.25
182.997
366.405
365.892
363.378
358.245
350.349
340.133
327.004
310.423
290.519
267.353
240.665
208.416
172.009
139.612
120.049
113.232
118.992
136.46
155.883
168.24
367.969
367.824
365.766
361.269
354.014
343.948
331.031
314.571
294.52
270.886
243.129
209.376
170.742
135.731
114.417
107.441
115.635
134.2
154.138
166.414
368.316
368.256
366.47
362.489
355.761
346.21
333.842
318.189
299.176
276.501
249.967
216.132
178.774
145.165
124.598
118.653
126.309
146.118
165.601
177.133
367.84
367.845
366.105
362.401
356.216
347.287
335.794
321.546
304.233
283.673
258.955
229.943
197.379
167.556
148.669
143.125
150.482
167.836
186.243
196.29
366.893
366.751
365.135
361.72
355.825
347.738
337.365
324.82
309.637
291.865
271.351
247.75
222.088
198.21
182.605
178.814
185.402
199.302
213.886
222.137
365.934
365.659
364.038
360.602
355.132
347.812
338.683
327.846
315.069
300.543
284.2
266.613
247.753
230.222
218.867
216.536
223.429
234.802
244.817
251.169
364.942
364.618
363.018
359.635
354.436
347.825
339.767
330.55
320.054
308.548
296.212
282.96
270.105
258.668
251.415
250.533
255.635
264.71
272.621
276.437
364.228
363.555
362.03
358.813
353.956
347.902
340.776
332.815
324.424
315.272
305.84
296.479
287.545
280.671
277.062
277.562
282.017
288.426
294.46
297.123
363.674
362.982
361.188
357.985
353.646
348.144
341.789
334.953
327.906
320.742
313.611
306.595
300.916
296.651
295.269
296.969
300.96
306.076
309.574
312.005
363.145
362.107
360.279
357.389
353.485
348.47
342.845
336.844
330.97
324.976
319.463
314.376
310.206
308.079
307.767
309.913
313.776
318.187
322.647
325.732
362.785
361.367
359.228
356.81
353.46
348.903
343.844
338.592
333.32
328.472
323.808
319.88
316.967
315.38
315.992
317.973
321.578
325.703
329.105
329.048
360.974
359.533
358.376
356.452
353.39
349.353
344.844
340.075
335.379
330.883
327.023
323.607
321.191
320.173
320.556
322.723
325.471
328.827
331.037
332.504
358.1
356.088
357.473
356.308
353.517
349.871
345.76
341.31
336.888
332.848
329.038
326.083
323.75
322.679
322.914
324.29
326.826
328.913
331.144
331.361
357.937
356.713
357.425
355.992
353.668
350.522
346.676
342.433
338.107
334.041
330.474
327.332
325.038
323.628
323.452
324.101
325.478
327.75
328.505
330.438
358.496
360.517
358.902
356.426
354.123
351.234
347.596
343.357
339.101
334.91
331.071
327.972
325.226
323.428
322.483
322.527
323.126
324.133
326.054
324.415
359.015
360.757
357.736
356.954
354.995
352.156
348.517
344.336
339.737
335.442
331.322
327.768
324.685
322.285
320.608
319.526
319.285
319.51
317.942
320.481
358.628
357.759
357.36
357.432
355.64
353.032
349.451
345.125
340.462
335.586
331.215
327.309
323.64
320.481
317.85
315.716
314.074
313.253
313.432
310.966
358.179
357.244
359.514
358.119
356.354
353.859
350.351
345.879
340.832
335.873
330.786
326.353
322.309
318.284
314.406
310.777
307.674
304.985
300.656
303.208
358.044
357.999
359.795
357.852
356.97
354.647
351.01
346.538
341.303
335.788
330.534
325.355
320.459
315.656
310.462
305.148
299.656
294.99
291.838
286.676
357.507
358.103
357.563
358.617
357.708
355.07
351.509
346.838
341.624
336
330.023
324.43
318.948
312.995
306.163
298.737
290.759
282.008
271.508
271.258
357.04
357.448
357.367
360.224
357.799
355.229
351.524
347.07
341.612
335.903
330.009
323.571
317.117
310.244
302.085
291.914
280.279
267.167
252.055
238.091
356.478
356.673
357.71
358.287
357.551
355.182
351.265
346.613
341.689
336.018
329.794
323.406
316.072
307.83
297.773
285.446
269.334
249.598
220.314
194.321
355.465
355.447
356.915
356.433
356.774
353.838
350.112
345.991
341.213
336.284
330.583
323.455
315.58
306.156
294.36
278.97
258.338
231.703
190.85
108.284
354.485
354.145
354.339
353.652
352.697
350.963
347.931
344.594
341.131
336.874
331.816
325.354
316.391
305.359
291.543
274.421
248.643
211.372
166.354
10.977
352.329
351.475
349.934
348.752
347.085
346.092
344.594
342.569
340.49
338.298
334.363
327.846
318.395
306.541
290.591
270.195
248.201
194.556
148.224
42.5242
349.232
347.631
345.363
342.826
340.795
340.328
340.276
340.42
340.573
340.659
338.476
332.417
321.971
308.669
295.344
266.188
252.17
198.127
144.412
88.5427
345.987
343.633
340.264
336.747
334.892
335.121
336.367
338.009
341.622
344.336
344.876
337.489
330.998
309.047
303.76
269.66
248.543
213.385
158.513
123.659
342.441
339.326
335.666
330.951
328.358
330.581
333.665
337.969
343.833
346.728
360.248
336.881
342.704
310.855
304.123
280.878
248.821
230.602
186.608
147.775
339.709
335.875
332.806
327.26
325.2
327.873
331.575
338.806
350.523
346.275
371.406
335.372
343.34
314.028
300.777
293.628
261.823
244.053
211.038
170.606
341.985
336.223
331.585
326.24
324.565
327.963
333.923
344.412
350.29
351.42
362.678
326.033
325.183
315.238
307.686
305.138
280.616
254.726
226.165
190.129
350.07
344.084
338.43
333.366
331.538
333.313
335.47
352.193
346.725
347.398
318.968
318.536
323.549
335.737
325.675
314.35
294.691
266.343
236.749
204.193
352.461
348.085
343.74
339.496
339.799
345.044
334.245
349.813
336.949
343.012
307.954
359.545
360.351
359.538
337.576
317.708
300.457
274.694
244.785
213.414
357.832
353.279
347.471
342.771
343.12
350.704
348.4
357.641
337.671
389.738
375.348
412.779
369.161
369.382
343.178
316.918
299.119
276.626
248.389
217.415
-212.926
-133.925
-187.333
-199.666
-182.283
-162.113
-155.91
-158.311
-162.226
-167.262
-175.886
-190.709
-209.387
-233.107
-256.561
-274.357
-285.001
-283.952
-274.835
-257.568
-235.155
-211.188
-186.939
-165.351
-148.174
-138
-135.681
-138.984
-148.163
-162.25
-180.935
-203.502
-228.359
-252.64
-272.812
-285.41
-287.345
-279.174
-260.255
-232.177
-197.522
-157.745
-118.43
-81.8853
-50.6916
-26.5282
-9.36221
1.0492
6.26952
5.8018
2.46837
-2.70927
-9.03957
-15.2546
-20.5417
-24.6698
-27.4317
-28.8511
-29.2189
-28.8239
-27.7811
-26.2164
-24.2279
-22.0257
-19.7555
-17.5395
-15.4289
-13.418
-11.6058
-10.0033
-8.64528
-7.49397
-6.47691
-5.61891
-4.79654
-3.98329
-3.16663
-2.29373
-1.40554
-0.504072
-96.9447