/*--------------------------------*- C++ -*----------------------------------*\
| =========                 |                                                 |
| \\      /  F ield         | OpenFOAM: The Open Source CFD Toolbox           |
|  \\    /   O peration     | Version:  2306                                  |
|   \\  /    A nd           | Website:  www.openfoam.com                      |
|    \\/     M anipulation  |                                                 |
\*---------------------------------------------------------------------------*/
FoamFile
{
    version     2.0;
    format      ascii;
    arch        "LSB;label=32;scalar=64";
    class       surfaceScalarField;
    location    "0.125";
    object      phi;
}
// * * * * * * * * * * * * * * * * * * * * * * * * * * * * * * * * * * * * * //

dimensions      [0 3 -1 0 0 0 0];

oriented        oriented;

internalField   nonuniform List<scalar> 
8520
(
0.00992785
7.21503e-05
0.00978962
0.000138228
0.00962954
0.000160084
0.00946831
0.00016123
0.00930948
0.000158828
0.00914925
0.000160231
0.00898647
0.000162779
0.00882112
0.000165349
0.00865388
0.000167244
0.00848588
0.000168
0.00831822
0.000167657
0.00815149
0.000166725
0.00798607
0.000165427
0.007822
0.000164069
0.00765932
0.000162681
0.00749813
0.000161189
0.00733842
0.000159707
0.00718037
0.00015805
0.00702408
0.000156292
0.00686958
0.000154504
0.00671708
0.000152492
0.00656653
0.000150554
0.00641815
0.000148377
0.00627195
0.000146206
0.00612795
0.000143996
0.00598633
0.000141616
0.00584702
0.000139315
0.00571014
0.000136883
0.00557575
0.000134383
0.0054438
0.000131951
0.00531443
0.000129371
0.00518759
0.000126838
0.00506316
0.000124438
0.00494128
0.000121875
0.00482172
0.000119564
0.00470448
0.000117235
0.00458947
0.000115009
0.00447649
0.000112979
0.00436544
0.000111053
0.00425608
0.00010936
0.00414815
0.000107927
0.00404141
0.000106741
0.00393543
0.000105982
0.00382994
0.000105491
0.00372436
0.000105583
0.00361824
0.000106117
0.003511
0.000107239
0.00340208
0.000108918
0.0032907
0.000111376
0.00317607
0.000114632
0.00305732
0.00011875
0.00293338
0.000123946
0.00280321
0.000130162
0.00266557
0.000137645
0.00251906
0.000146514
0.00236229
0.000156766
0.00219367
0.000168618
0.0020115
0.000182166
0.00181418
0.000197329
0.00159979
0.000214381
0.00136697
0.000232822
0.00111406
0.000252908
0.000840185
0.000273878
0.000545041
0.000295144
0.000228032
0.000317009
-0.000110446
0.000338478
-0.000474707
0.000364261
-0.000858503
0.000383796
-0.00121584
0.00035734
-0.00145822
0.000242374
-0.00150505
4.68283e-05
-0.00135469
-0.000150351
-0.00105275
-0.000301941
-0.000691118
-0.000361636
-0.000432404
-0.000258713
-0.00039327
-3.91346e-05
-0.00054206
0.00014879
-0.000681752
0.000139692
-0.000655396
-2.63561e-05
-9.71984e-05
-0.000558197
0.0100357
3.64254e-05
0.0100798
9.41315e-05
0.0101109
0.000129051
0.0101272
0.000144858
0.0101358
0.000150265
0.0101432
0.00015285
0.0101494
0.000156541
0.0101533
0.000161419
0.0101538
0.000166793
0.0101504
0.000171344
0.0101433
0.000174807
0.0101327
0.000177323
0.0101193
0.000178849
0.0101033
0.000180056
0.010085
0.000180959
0.0100645
0.000181654
0.0100418
0.000182404
0.0100171
0.00018279
0.00999028
0.000183119
0.00996143
0.000183358
0.00993071
0.000183207
0.00989809
0.000183178
0.00986371
0.000182759
0.00982767
0.000182244
0.00978986
0.000181802
0.00975058
0.000180901
0.00970968
0.000180212
0.00966726
0.000179304
0.00962351
0.00017813
0.00957814
0.000177324
0.00953156
0.00017595
0.00948343
0.000174971
0.00943403
0.000173839
0.00938324
0.000172658
0.00933099
0.000171817
0.00927742
0.000170802
0.00922229
0.000170147
0.00916566
0.000169607
0.00910737
0.00016934
0.00904739
0.000169342
0.00898548
0.000169836
0.00892159
0.000170631
0.00885538
0.000172197
0.00878671
0.000174162
0.0087152
0.000177085
0.00864052
0.000180804
0.00856231
0.000185443
0.00848003
0.000191199
0.00839328
0.000198129
0.00830129
0.000206619
0.00820359
0.000216452
0.00809906
0.000228476
0.00798704
0.000242187
0.00786631
0.000258373
0.00773573
0.000277089
0.00759407
0.000298433
0.00743953
0.000323157
0.00727083
0.00035086
0.00708566
0.000382501
0.00688229
0.000417753
0.006658
0.000457115
0.0064108
0.000500108
0.00613734
0.000547336
0.0058351
0.000597381
0.00550078
0.000651334
0.00513385
0.000705408
0.00474012
0.000757985
0.00432518
0.000798737
0.0038806
0.00080192
0.00335835
0.000764631
0.00268858
0.000716591
0.00185208
0.000686155
0.000807844
0.000742291
-0.000373867
0.000820076
-0.00141604
0.000783456
-0.00194358
0.000488407
-0.0020071
0.000212309
-0.00188228
1.48701e-05
-0.00176653
-0.000142104
-0.000259328
-0.0016044
0.0100142
2.22498e-05
0.0100441
6.42555e-05
0.0100778
9.5299e-05
0.0101073
0.000115321
0.0101314
0.000126239
0.0101523
0.000131948
0.0101731
0.000135758
0.0101951
0.000139361
0.010218
0.000143902
0.010241
0.000148343
0.0102633
0.000152515
0.0102845
0.0001561
0.0103048
0.000158574
0.0103241
0.000160772
0.0103428
0.000162256
0.0103608
0.000163681
0.0103782
0.000164932
0.010395
0.000165973
0.0104112
0.000167
0.0104266
0.00016795
0.0104411
0.000168694
0.0104549
0.000169373
0.0104676
0.000169995
0.0104797
0.000170226
0.0104906
0.000170879
0.0105006
0.000170891
0.0105096
0.000171178
0.0105174
0.000171501
0.0105244
0.000171145
0.0105299
0.000171847
0.0105346
0.000171297
0.0105377
0.000171873
0.0105397
0.000171819
0.0105403
0.000172019
0.0105395
0.000172678
0.0105373
0.000172933
0.0105335
0.000173996
0.0105281
0.000174946
0.010521
0.000176433
0.0105122
0.000178224
0.0105014
0.00018063
0.0104885
0.000183446
0.0104735
0.000187226
0.0104562
0.000191479
0.0104362
0.000197051
0.0104137
0.000203308
0.0103881
0.000211124
0.0103593
0.000219933
0.0103268
0.000230612
0.0102905
0.000242947
0.0102499
0.00025702
0.0102043
0.000274138
0.0101537
0.000292784
0.0100966
0.000315484
0.0100334
0.000340235
0.00996219
0.00036966
0.00988326
0.000402088
0.00979424
0.000439889
0.0096955
0.00048124
0.009584
0.000529248
0.00945996
0.000581155
0.00932014
0.000639928
0.00916409
0.000703387
0.00898863
0.000772838
0.00879413
0.000845832
0.00857732
0.000922221
0.00834108
0.000994223
0.00807611
0.00106371
0.00776249
0.00111553
0.00736068
0.00116644
0.006864
0.00121327
0.00628387
0.00126629
0.00568073
0.00134543
0.00507464
0.00142616
0.00437879
0.00147931
0.00343626
0.00143094
0.00229905
0.00134951
0.00101541
0.00129851
-0.000284773
0.00115808
0.000661762
-0.00120586
0.0100069
1.53607e-05
0.0100268
4.43496e-05
0.0100519
7.02427e-05
0.0100769
9.02241e-05
0.0101004
0.000102809
0.0101223
0.000110072
0.0101432
0.0001148
0.0101642
0.000118342
0.0101865
0.000121651
0.0102096
0.000125196
0.0102334
0.000128789
0.0102571
0.00013233
0.0102808
0.000134875
0.0103042
0.000137443
0.0103275
0.000138943
0.0103505
0.000140669
0.0103737
0.000141747
0.0103968
0.000142871
0.0104198
0.000143963
0.0104429
0.000144831
0.0104657
0.000145952
0.0104885
0.000146513
0.0105109
0.000147617
0.0105332
0.000147935
0.0105551
0.00014901
0.0105766
0.000149324
0.0105978
0.000150012
0.0106185
0.000150788
0.0106387
0.000150905
0.0106584
0.000152187
0.0106775
0.000152189
0.0106959
0.000153466
0.0107136
0.000154095
0.0107306
0.000155039
0.0107467
0.000156618
0.010762
0.00015763
0.0107762
0.000159794
0.0107894
0.000161706
0.0108016
0.000164275
0.0108124
0.000167395
0.0108222
0.000170865
0.0108304
0.00017528
0.0108373
0.000180319
0.0108425
0.000186216
0.0108461
0.000193513
0.010848
0.000201326
0.0108477
0.000211431
0.0108459
0.00022179
0.0108411
0.000235374
0.0108347
0.000249349
0.0108249
0.000266825
0.010813
0.000286003
0.0107975
0.000308372
0.0107791
0.000333848
0.0107566
0.000362756
0.0107307
0.000395547
0.0106998
0.00043301
0.010665
0.000474681
0.0106241
0.000522132
0.0105783
0.00057504
0.0105255
0.000633947
0.0104663
0.000699133
0.0103988
0.000770868
0.010324
0.000847681
0.0102382
0.000931555
0.0101438
0.00101667
0.0100312
0.0011068
0.00989715
0.00119777
0.0097224
0.00129028
0.00949978
0.00138907
0.00923164
0.00148141
0.00891149
0.00158644
0.00856298
0.00169394
0.00818385
0.00180529
0.00772961
0.00193355
0.0071412
0.00201935
0.00641855
0.00207216
0.00570744
0.00200962
0.00491457
0.00195096
0.00176278
0.00381355
0.0100043
1.10525e-05
0.0100166
3.20104e-05
0.010035
5.19207e-05
0.0100563
6.89402e-05
0.0100781
8.09447e-05
0.0100988
8.93496e-05
0.0101194
9.42705e-05
0.0101396
9.80769e-05
0.0101608
0.000100465
0.0101827
0.000103359
0.0102052
0.000106257
0.0102284
0.000109164
0.0102517
0.000111564
0.0102751
0.000113992
0.0102985
0.000115562
0.0103218
0.000117378
0.0103453
0.000118255
0.0103687
0.000119433
0.0103923
0.000120423
0.0104159
0.000121142
0.0104394
0.00012245
0.0104632
0.000122732
0.0104867
0.000124185
0.0105102
0.0001244
0.0105335
0.000125747
0.0105566
0.000126151
0.0105795
0.000127139
0.0106023
0.000128013
0.0106245
0.00012865
0.0106467
0.000129981
0.0106683
0.000130637
0.0106896
0.000132118
0.0107104
0.000133335
0.0107307
0.00013476
0.0107504
0.000136916
0.0107695
0.000138513
0.0107879
0.000141419
0.0108056
0.000144012
0.0108225
0.000147326
0.0108384
0.000151492
0.0108538
0.000155524
0.0108677
0.000161349
0.0108811
0.000166943
0.010893
0.000174332
0.010904
0.000182482
0.0109136
0.000191686
0.010922
0.000203023
0.0109291
0.000214717
0.0109346
0.000229906
0.0109388
0.000245101
0.010941
0.000264639
0.0109421
0.000284944
0.0109408
0.000309627
0.0109382
0.000336445
0.0109333
0.000367653
0.0109267
0.000402139
0.0109178
0.000441891
0.0109073
0.000485273
0.0108939
0.000535466
0.0108792
0.000589744
0.0108613
0.000651881
0.010842
0.000718402
0.0108196
0.000793254
0.0107946
0.000872703
0.0107666
0.000959554
0.0107315
0.00105175
0.0106887
0.0011496
0.01063
0.00125648
0.010554
0.0013663
0.010457
0.00148607
0.0103327
0.00160567
0.0101825
0.00173663
0.00999989
0.0018766
0.00978408
0.00202111
0.00952672
0.0021909
0.00922263
0.00232345
0.00884974
0.00244504
0.00836877
0.0024906
0.00775107
0.00256865
0.00257974
0.00693411
0.0100031
7.98315e-06
0.0100119
2.31912e-05
0.0100255
3.82984e-05
0.0100432
5.12224e-05
0.0100625
6.16667e-05
0.0100824
6.94404e-05
0.0101024
7.42595e-05
0.0101224
7.80709e-05
0.0101428
8.00626e-05
0.0101637
8.24578e-05
0.0101854
8.45775e-05
0.0102079
8.66534e-05
0.0102306
8.89071e-05
0.0102537
9.08356e-05
0.0102768
9.25115e-05
0.0103
9.41908e-05
0.0103234
9.48646e-05
0.0103465
9.62574e-05
0.0103701
9.68567e-05
0.0103934
9.78079e-05
0.0104171
9.88408e-05
0.0104406
9.92089e-05
0.0104641
0.000100676
0.0104875
0.00010095
0.0105109
0.000102412
0.0105341
0.000102925
0.0105571
0.000104125
0.01058
0.000105098
0.0106025
0.000106142
0.010625
0.000107539
0.0106469
0.000108696
0.0106686
0.000110414
0.0106899
0.000112014
0.0107107
0.000113995
0.0107312
0.000116459
0.010751
0.00011868
0.0107703
0.000122164
0.010789
0.000125244
0.010807
0.00012934
0.0108243
0.000134175
0.0108411
0.000138792
0.0108566
0.000145771
0.010872
0.000151607
0.0108857
0.000160592
0.0108994
0.000168814
0.0109112
0.000179852
0.010923
0.000191232
0.0109328
0.00020493
0.0109425
0.000220221
0.0109502
0.000237334
0.0109576
0.000257316
0.0109633
0.000279242
0.0109683
0.00030461
0.0109718
0.000332968
0.0109747
0.000364733
0.0109759
0.000400898
0.010977
0.00044085
0.0109763
0.000485983
0.0109759
0.000535842
0.0109734
0.000592222
0.0109725
0.000652822
0.0109686
0.000722241
0.0109671
0.000794768
0.0109624
0.000877425
0.010958
0.000963903
0.0109501
0.0010597
0.0109369
0.00116282
0.0109195
0.00127385
0.0108912
0.00139461
0.0108569
0.00152037
0.010804
0.00165857
0.0107383
0.00180234
0.0106518
0.00196309
0.010544
0.00212892
0.0104218
0.00231303
0.0102673
0.002478
0.0100554
0.00265691
0.00974634
0.00279968
0.00935208
0.00296292
0.00307724
0.00885458
0.0100024
5.55606e-06
0.0100094
1.62651e-05
0.0100203
2.73632e-05
0.0100354
3.60885e-05
0.0100523
4.47549e-05
0.0100711
5.06991e-05
0.0100903
5.50038e-05
0.0101101
5.83059e-05
0.0101303
5.9891e-05
0.0101506
6.2122e-05
0.0101719
6.33295e-05
0.0101937
6.4827e-05
0.0102159
6.66736e-05
0.0102386
6.81396e-05
0.0102614
6.97342e-05
0.0102844
7.11472e-05
0.0103077
7.15718e-05
0.0103307
7.32683e-05
0.0103543
7.32733e-05
0.0103773
7.47559e-05
0.010401
7.51538e-05
0.0104243
7.5933e-05
0.0104478
7.71513e-05
0.0104712
7.76045e-05
0.0104945
7.91062e-05
0.0105177
7.97051e-05
0.0105407
8.10989e-05
0.0105636
8.21822e-05
0.0105863
8.35312e-05
0.0106087
8.5061e-05
0.0106308
8.66014e-05
0.0106527
8.8566e-05
0.0106742
9.0503e-05
0.0106952
9.29777e-05
0.010716
9.57005e-05
0.0107362
9.84925e-05
0.0107558
0.000102506
0.0107752
0.000105879
0.0107936
0.000110938
0.0108118
0.000115925
0.0108291
0.000121544
0.0108458
0.000129006
0.010862
0.000135488
0.0108771
0.000145446
0.0108919
0.000154019
0.0109055
0.000166285
0.0109188
0.00017792
0.0109307
0.000193014
0.0109425
0.000208467
0.0109528
0.00022697
0.0109628
0.000247318
0.0109718
0.000270209
0.0109801
0.000296316
0.0109879
0.000325174
0.0109949
0.00035775
0.0110016
0.000394257
0.0110076
0.000434757
0.0110139
0.000479775
0.0110191
0.000530624
0.0110261
0.000585205
0.0110306
0.000648268
0.0110392
0.000713677
0.0110436
0.000790401
0.0110526
0.000868377
0.0110568
0.000959734
0.0110631
0.00105338
0.0110656
0.00116036
0.0110654
0.00127401
0.0110636
0.00139639
0.0110521
0.00153186
0.0110365
0.00167418
0.0110095
0.00182938
0.010969
0.00200358
0.0109238
0.0021741
0.0108592
0.00237769
0.0107713
0.00256586
0.0106501
0.0027781
0.010462
0.0029878
0.0102315
0.00319341
0.00339195
0.00991678
0.0100021
3.41257e-06
0.0100078
1.05669e-05
0.0100175
1.77357e-05
0.0100306
2.29552e-05
0.0100459
2.94765e-05
0.0100635
3.30911e-05
0.010082
3.64913e-05
0.0101015
3.87841e-05
0.0101215
3.99275e-05
0.0101417
4.19501e-05
0.0101627
4.22651e-05
0.010184
4.35204e-05
0.010206
4.47391e-05
0.0102283
4.58057e-05
0.0102508
4.72449e-05
0.0102738
4.80997e-05
0.0102968
4.85642e-05
0.0103199
5.01684e-05
0.0103433
4.98742e-05
0.0103664
5.17002e-05
0.0103901
5.1467e-05
0.0104132
5.27827e-05
0.0104368
5.35555e-05
0.0104601
5.43349e-05
0.0104835
5.57349e-05
0.0105067
5.64729e-05
0.0105298
5.79823e-05
0.0105528
5.92458e-05
0.0105755
6.0741e-05
0.0105981
6.25457e-05
0.0106204
6.42727e-05
0.0106424
6.65861e-05
0.0106641
6.87363e-05
0.0106854
7.17138e-05
0.0107065
7.45822e-05
0.010727
7.80136e-05
0.0107472
8.23152e-05
0.010767
8.60762e-05
0.0107859
9.19885e-05
0.010805
9.68413e-05
0.0108227
0.000103855
0.0108408
0.000110946
0.0108573
0.000118918
0.0108741
0.000128651
0.0108896
0.000138534
0.0109051
0.000150811
0.0109195
0.00016351
0.0109336
0.000178926
0.0109471
0.000195
0.0109598
0.000214285
0.0109723
0.000234761
0.0109839
0.000258592
0.0109955
0.000284758
0.0110067
0.000313972
0.0110172
0.000347218
0.0110286
0.000382833
0.0110386
0.000424847
0.0110506
0.000467772
0.011061
0.000520219
0.0110734
0.000572795
0.011086
0.000635686
0.0110983
0.000701298
0.0111138
0.000774944
0.0111257
0.000856465
0.0111432
0.000942257
0.011154
0.00104254
0.0111706
0.00114376
0.0111814
0.00126319
0.0111909
0.00138698
0.0111997
0.00152304
0.0111981
0.00167574
0.0111929
0.00183464
0.011184
0.00201249
0.0111538
0.00220424
0.0111277
0.00240376
0.0110685
0.00262509
0.0109898
0.00285683
0.0108814
0.00309614
0.0107258
0.00334901
0.00360827
0.0105095
0.010002
1.39579e-06
0.0100069
5.64446e-06
0.010016
8.63596e-06
0.0100277
1.12618e-05
0.0100421
1.51048e-05
0.0100589
1.6265e-05
0.0100768
1.86326e-05
0.0100962
1.93448e-05
0.0101158
2.03888e-05
0.0101361
2.15859e-05
0.010157
2.14123e-05
0.0101781
2.2411e-05
0.0101998
2.30378e-05
0.0102218
2.37826e-05
0.0102442
2.48322e-05
0.0102672
2.51604e-05
0.0102901
2.56717e-05
0.0103132
2.70331e-05
0.0103366
2.65037e-05
0.0103596
2.86398e-05
0.0103834
2.76543e-05
0.0104064
2.97756e-05
0.0104303
2.97295e-05
0.0104534
3.12025e-05
0.010477
3.21239e-05
0.0105002
3.33003e-05
0.0105235
3.46283e-05
0.0105465
3.63332e-05
0.0105696
3.76474e-05
0.0105921
4.00283e-05
0.0106147
4.15934e-05
0.0106369
4.4467e-05
0.0106589
4.66871e-05
0.0106806
5.00509e-05
0.0107019
5.3244e-05
0.010723
5.69443e-05
0.0107435
6.18164e-05
0.010764
6.5558e-05
0.0107834
7.26008e-05
0.0108034
7.68405e-05
0.0108216
8.56324e-05
0.0108408
9.17188e-05
0.0108581
0.000101646
0.0108763
0.00011046
0.0108928
0.000122081
0.0109099
0.000133626
0.0109255
0.000147922
0.0109419
0.000162592
0.0109567
0.000180204
0.0109723
0.000198689
0.0109864
0.000220595
0.0110015
0.0002435
0.0110154
0.000270822
0.0110301
0.000299339
0.0110448
0.000332527
0.0110588
0.00036885
0.0110753
0.000408254
0.011089
0.000454099
0.0111079
0.00050136
0.0111227
0.000557966
0.0111435
0.000614853
0.011161
0.000683828
0.0111828
0.000753149
0.0112046
0.000834637
0.0112251
0.000921834
0.0112518
0.00101583
0.011271
0.00112451
0.0112969
0.00123726
0.0113184
0.00136552
0.0113354
0.00150604
0.0113545
0.00165661
0.0113634
0.00182576
0.011366
0.00200992
0.0113653
0.00220493
0.0113438
0.00242525
0.011313
0.00265589
0.0112643
0.00290553
0.0111841
0.00317633
0.0110743
0.00345883
0.00375065
0.0109319
0.0100019
-4.58242e-07
0.0100066
9.32312e-07
0.0100154
-2.06919e-07
0.0100263
3.22002e-07
0.0100405
9.6734e-07
0.0100568
-7.30567e-08
0.0100744
1.03106e-06
0.0100937
3.7438e-08
0.010113
1.07495e-06
0.0101336
1.07176e-06
0.0101543
6.39337e-07
0.0101752
1.51184e-06
0.010197
1.27216e-06
0.0102186
2.20078e-06
0.0102413
2.09178e-06
0.0102638
2.63755e-06
0.010287
2.53951e-06
0.01031
4.00577e-06
0.0103334
3.06338e-06
0.0103567
5.40327e-06
0.0103805
3.87481e-06
0.0104037
6.57028e-06
0.0104275
5.89302e-06
0.0104508
7.86752e-06
0.0104744
8.51634e-06
0.0104979
9.81879e-06
0.0105211
1.14134e-05
0.0105446
1.29153e-05
0.0105674
1.47968e-05
0.0105906
1.68676e-05
0.010613
1.91392e-05
0.0106359
2.16281e-05
0.0106578
2.47715e-05
0.0106802
2.76124e-05
0.0107016
3.18523e-05
0.0107234
3.51765e-05
0.0107443
4.08842e-05
0.0107653
4.45361e-05
0.0107856
5.23246e-05
0.010806
5.64414e-05
0.0108254
6.62477e-05
0.0108452
7.18816e-05
0.0108637
8.3155e-05
0.0108829
9.12636e-05
0.0109007
0.00010433
0.0109192
0.000115054
0.0109364
0.000130765
0.0109544
0.000144634
0.0109714
0.000163163
0.0109884
0.000181648
0.0110061
0.000202932
0.0110222
0.000227356
0.0110409
0.000252216
0.011057
0.0002832
0.0110763
0.000313261
0.0110939
0.00035118
0.0111136
0.000388591
0.0111342
0.000433536
0.0111544
0.000481118
0.011179
0.000533315
0.0112005
0.00059344
0.0112293
0.000654969
0.0112539
0.000728606
0.0112847
0.000803829
0.0113156
0.000890941
0.0113455
0.000985848
0.0113821
0.00108795
0.0114137
0.00120563
0.0114478
0.00133145
0.0114831
0.0014707
0.0115101
0.0016296
0.0115393
0.00179659
0.0115599
0.00198934
0.0115709
0.00219391
0.0115713
0.00242489
0.011564
0.00266317
0.0115245
0.00294502
0.0114817
0.00321915
0.0114001
0.00354042
0.00386931
0.0112814
0.0100017
-2.17106e-06
0.0100067
-4.00918e-06
0.0100155
-9.00874e-06
0.0100262
-1.04375e-05
0.0100409
-1.36777e-05
0.0100568
-1.6016e-05
0.0100748
-1.69852e-05
0.0100937
-1.88464e-05
0.0101133
-1.85017e-05
0.0101338
-1.94678e-05
0.0101544
-1.99467e-05
0.0101754
-1.95235e-05
0.010197
-2.02945e-05
0.0102188
-1.95805e-05
0.0102414
-2.0537e-05
0.0102641
-2.00602e-05
0.0102871
-2.04059e-05
0.0103105
-1.94716e-05
0.0103336
-1.99957e-05
0.0103576
-1.86093e-05
0.0103808
-1.93068e-05
0.0104049
-1.75193e-05
0.0104281
-1.73747e-05
0.0104523
-1.62736e-05
0.0104754
-1.46328e-05
0.0104996
-1.4374e-05
0.0105224
-1.14022e-05
0.0105466
-1.12092e-05
0.0105691
-7.75058e-06
0.0105929
-6.93737e-06
0.0106153
-3.25743e-06
0.0106387
-1.70302e-06
0.0106609
2.57128e-06
0.0106836
4.82089e-06
0.0107056
9.89387e-06
0.0107277
1.31141e-05
0.0107495
1.90934e-05
0.0107706
2.33426e-05
0.0107922
3.07613e-05
0.0108126
3.60695e-05
0.0108337
4.50889e-05
0.0108534
5.22293e-05
0.0108742
6.23975e-05
0.0108931
7.23549e-05
0.0109136
8.37902e-05
0.0109319
9.674e-05
0.0109522
0.000110523
0.0109705
0.000126282
0.0109902
0.000143498
0.0110093
0.000162506
0.0110282
0.000184
0.0110489
0.000206702
0.0110675
0.000233658
0.0110899
0.000260733
0.0111092
0.000293974
0.0111334
0.000327012
0.011155
0.000366961
0.0111807
0.000407858
0.0112064
0.000455375
0.0112335
0.000506242
0.0112654
0.000561514
0.0112936
0.000626851
0.0113326
0.00068958
0.0113645
0.000771905
0.0114067
0.000848743
0.0114474
0.000945162
0.0114905
0.00104482
0.0115367
0.00115945
0.0115851
0.00128303
0.01163
0.00142586
0.0116788
0.00158073
0.0117238
0.00175162
0.011761
0.00195218
0.0117951
0.00215975
0.0118201
0.00239991
0.0118198
0.00266351
0.0118274
0.00293734
0.0117811
0.00326546
0.0117423
0.00357923
0.0039621
0.0116495
0.0100016
-3.78724e-06
0.0100071
-9.50767e-06
0.010016
-1.79313e-05
0.0100276
-2.19948e-05
0.0100428
-2.88478e-05
0.0100591
-3.23342e-05
0.0100774
-3.52833e-05
0.0100965
-3.79629e-05
0.010116
-3.80236e-05
0.010137
-4.04939e-05
0.010157
-3.98742e-05
0.0101789
-4.14507e-05
0.0101997
-4.11283e-05
0.0102226
-4.24064e-05
0.0102446
-4.25648e-05
0.010268
-4.34532e-05
0.0102906
-4.30235e-05
0.0103146
-4.34766e-05
0.0103375
-4.28865e-05
0.010362
-4.3124e-05
0.010385
-4.23085e-05
0.0104096
-4.20847e-05
0.0104328
-4.06104e-05
0.0104572
-4.06201e-05
0.0104806
-3.80764e-05
0.0105046
-3.83735e-05
0.0105281
-3.4874e-05
0.0105517
-3.4877e-05
0.0105752
-3.12426e-05
0.0105985
-3.01744e-05
0.0106221
-2.68668e-05
0.0106447
-2.43646e-05
0.0106684
-2.10836e-05
0.0106906
-1.73355e-05
0.010714
-1.35818e-05
0.0107357
-8.57064e-06
0.0107589
-4.09446e-06
0.01078
2.21303e-06
0.0108029
7.9041e-06
0.0108235
1.54543e-05
0.0108459
2.26967e-05
0.0108662
3.19128e-05
0.010888
4.06202e-05
0.0109083
5.20577e-05
0.0109294
6.27033e-05
0.0109501
7.60177e-05
0.0109704
9.02439e-05
0.010992
0.000104622
0.0110118
0.000123763
0.0110343
0.000139961
0.0110546
0.000163697
0.0110776
0.000183732
0.0110998
0.000211414
0.0111232
0.000237342
0.0111483
0.000268945
0.0111729
0.000302341
0.0112013
0.000338607
0.0112285
0.000380616
0.0112601
0.000423826
0.011293
0.000473339
0.0113262
0.000528274
0.0113677
0.000585347
0.0114039
0.000653369
0.0114524
0.000723454
0.0114966
0.0008045
0.0115496
0.000892164
0.0116024
0.000992023
0.0116629
0.00109893
0.0117213
0.00122467
0.0117857
0.00136148
0.0118541
0.00151235
0.0119099
0.0016958
0.0119826
0.00187941
0.0120304
0.00211202
0.0120829
0.00234738
0.0121135
0.00263294
0.0121357
0.00291513
0.0121327
0.00326842
0.0120912
0.00362072
0.00399665
0.0120567
0.0100015
-5.32137e-06
0.0100081
-1.60288e-05
0.0100172
-2.70954e-05
0.0100307
-3.54729e-05
0.0100462
-4.43999e-05
0.0100638
-4.98695e-05
0.0100823
-5.38215e-05
0.0101019
-5.75371e-05
0.0101217
-5.78005e-05
0.0101426
-6.14425e-05
0.0101628
-6.00609e-05
0.010185
-6.36255e-05
0.0102062
-6.23239e-05
0.0102294
-6.55799e-05
0.0102517
-6.4952e-05
0.0102751
-6.67901e-05
0.0102984
-6.63896e-05
0.0103219
-6.69223e-05
0.010346
-6.69617e-05
0.0103696
-6.67217e-05
0.0103939
-6.66642e-05
0.0104175
-6.56336e-05
0.0104421
-6.52348e-05
0.0104653
-6.38681e-05
0.0104902
-6.29444e-05
0.010513
-6.11694e-05
0.010538
-5.98613e-05
0.0105605
-5.73867e-05
0.0105855
-5.62609e-05
0.0106078
-5.24882e-05
0.0106329
-5.19226e-05
0.0106549
-4.63868e-05
0.01068
-4.61786e-05
0.0107017
-3.90503e-05
0.0107266
-3.84646e-05
0.0107482
-3.01662e-05
0.0107724
-2.83264e-05
0.0107942
-1.95161e-05
0.0108174
-1.53308e-05
0.0108395
-6.60153e-06
0.0108616
5.09037e-07
0.010884
9.50989e-06
0.0109056
1.90525e-05
0.0109279
2.97974e-05
0.0109498
4.07977e-05
0.0109713
5.44708e-05
0.0109944
6.71267e-05
0.0110153
8.37467e-05
0.0110397
9.94015e-05
0.0110611
0.00011851
0.0110859
0.000138941
0.0111098
0.000159831
0.0111344
0.000186804
0.0111621
0.000209681
0.0111871
0.0002439
0.011219
0.000270425
0.011246
0.000311673
0.0112825
0.000344084
0.0113131
0.000393207
0.0113543
0.000432151
0.0113916
0.000491011
0.0114367
0.000540245
0.0114842
0.000605802
0.011533
0.00067467
0.0115929
0.000744565
0.0116475
0.00083761
0.0117201
0.000919388
0.0117818
0.00103721
0.0118672
0.0011393
0.0119389
0.00128978
0.0120295
0.00142178
0.012113
0.00161227
0.0122029
0.00178959
0.0122846
0.00203032
0.0123607
0.00227127
0.0124398
0.00255378
0.0124605
0.00289441
0.0125183
0.00321068
0.0124966
0.00364242
0.00404348
0.0124498
0.0100019
-7.23307e-06
0.0100096
-2.36724e-05
0.01002
-3.75697e-05
0.0100356
-5.09934e-05
0.0100525
-6.13059e-05
0.0100711
-6.85012e-05
0.0100907
-7.34328e-05
0.0101101
-7.69239e-05
0.0101309
-7.86008e-05
0.010151
-8.1538e-05
0.0101726
-8.16773e-05
0.0101943
-8.53378e-05
0.0102169
-8.48697e-05
0.0102397
-8.84589e-05
0.0102631
-8.82854e-05
0.0102861
-8.98061e-05
0.0103104
-9.06771e-05
0.0103333
-8.98703e-05
0.0103585
-9.20919e-05
0.0103814
-8.96359e-05
0.0104068
-9.21109e-05
0.0104298
-8.85826e-05
0.0104552
-9.0715e-05
0.0104782
-8.67838e-05
0.0105035
-8.82733e-05
0.0105264
-8.40479e-05
0.0105514
-8.49009e-05
0.0105746
-8.0542e-05
0.0105992
-8.0903e-05
0.0106228
-7.60892e-05
0.0106471
-7.62038e-05
0.010671
-7.02788e-05
0.010695
-7.0242e-05
0.0107189
-6.29439e-05
0.0107428
-6.23108e-05
0.0107665
-5.39223e-05
0.01079
-5.17871e-05
0.0108136
-4.3165e-05
0.0108365
-3.82273e-05
0.0108602
-3.02981e-05
0.0108824
-2.16878e-05
0.0109063
-1.43795e-05
0.0109281
-2.75207e-06
0.0109523
5.59743e-06
0.0109738
1.92833e-05
0.0109987
2.96309e-05
0.0110205
4.53125e-05
0.0110461
5.81857e-05
0.0110683
7.71322e-05
0.0110955
9.13086e-05
0.0111182
0.000116308
0.0111479
0.000130131
0.0111718
0.00016286
0.0112036
0.0001779
0.0112317
0.000215799
0.0112636
0.000238545
0.0112998
0.000275414
0.0113308
0.000313126
0.0113766
0.000347346
0.0114103
0.00039851
0.0114627
0.000438598
0.0115054
0.000497549
0.011564
0.000547196
0.0116161
0.000622586
0.0116858
0.000674831
0.01175
0.000773444
0.0118269
0.000842428
0.0119149
0.000949248
0.0119947
0.00105951
0.012106
0.0011785
0.0121973
0.0013304
0.0123251
0.00148447
0.0124186
0.00169617
0.0125632
0.00188569
0.0126535
0.00218091
0.0127577
0.00244965
0.0128721
0.00278003
0.012896
0.00318676
0.012951
0.00358734
0.00406377
0.0129307
0.0100029
-1.01057e-05
0.0100121
-3.28527e-05
0.0100255
-5.10147e-05
0.0100434
-6.88866e-05
0.0100625
-8.03669e-05
0.0100824
-8.84687e-05
0.0101028
-9.37706e-05
0.0101226
-9.67451e-05
0.0101437
-9.97092e-05
0.0101642
-0.000102033
0.0101867
-0.000104199
0.0102089
-0.000107566
0.0102322
-0.000108157
0.0102556
-0.000111826
0.010279
-0.000111672
0.0103028
-0.000113612
0.0103264
-0.000114344
0.0103506
-0.000114016
0.0103747
-0.000116159
0.0103991
-0.000114069
0.0104233
-0.000116267
0.010448
-0.000113303
0.0104719
-0.000114694
0.0104969
-0.000111773
0.0105205
-0.000111799
0.0105459
-0.000109448
0.0105688
-0.000107848
0.0105949
-0.000106677
0.0106173
-0.000103207
0.0106442
-0.000103048
0.010666
-9.7991e-05
0.0106934
-9.77162e-05
0.0107151
-9.18788e-05
0.0107423
-9.02146e-05
0.0107641
-8.41105e-05
0.0107908
-8.0579e-05
0.0108128
-7.37603e-05
0.0108389
-6.9252e-05
0.0108606
-5.99641e-05
0.0108869
-5.65815e-05
0.0109074
-4.22392e-05
0.0109353
-4.22553e-05
0.0109537
-2.11045e-05
0.0109839
-2.46721e-05
0.0110007
2.49033e-06
0.0110319
-1.5925e-06
0.0110511
2.61987e-05
0.0110796
2.96471e-05
0.0111048
5.19462e-05
0.0111287
6.74393e-05
0.0111613
8.36877e-05
0.0111821
0.000109284
0.0112197
0.000125237
0.0112431
0.000154586
0.0112819
0.000177001
0.0113119
0.000208551
0.0113516
0.000235622
0.0113892
0.000275601
0.0114319
0.000304566
0.0114789
0.000351591
0.0115237
0.000393754
0.0115867
0.000434527
0.0116313
0.000502673
0.0117128
0.000541064
0.0117665
0.000621137
0.0118568
0.000683123
0.0119349
0.000764323
0.0120338
0.000850361
0.0121338
0.000959498
0.0122543
0.00105802
0.012381
0.00120365
0.0125046
0.00136092
0.0126848
0.00151594
0.0127992
0.00177131
0.0129799
0.00200024
0.0131352
0.00229432
0.0132427
0.0026725
0.0133771
0.00305238
0.0134463
0.00351809
0.00405548
0.0134546
0.0100041
-1.41899e-05
0.0100169
-4.57025e-05
0.0100347
-6.88296e-05
0.0100568
-9.08934e-05
0.0100776
-0.000101241
0.0100994
-0.000110281
0.0101192
-0.000113544
0.0101405
-0.000118054
0.0101613
-0.000120477
0.0101838
-0.000124579
0.0102064
-0.00012676
0.0102303
-0.000131484
0.0102535
-0.000131336
0.0102781
-0.000136428
0.0103009
-0.000134474
0.010326
-0.000138679
0.0103485
-0.000136902
0.0103743
-0.000139797
0.0103968
-0.000138674
0.0104232
-0.000140459
0.0104456
-0.00013869
0.0104724
-0.000140025
0.0104948
-0.000137154
0.0105215
-0.000138442
0.010544
-0.000134358
0.0105707
-0.000136067
0.0105932
-0.00013042
0.0106202
-0.000133649
0.0106425
-0.000125488
0.01067
-0.000130575
0.0106919
-0.000119915
0.0107197
-0.000125469
0.0107415
-0.000113731
0.0107689
-0.000117536
0.0107911
-0.000106304
0.0108173
-0.000106787
0.0108404
-9.68831e-05
0.0108648
-9.36309e-05
0.0108895
-8.47359e-05
0.0109117
-7.87736e-05
0.0109385
-6.90191e-05
0.0109587
-6.24128e-05
0.0109873
-4.97553e-05
0.0110061
-4.34423e-05
0.0110367
-2.81501e-05
0.0110549
-1.97711e-05
0.0110877
-6.63359e-06
0.0111055
1.18435e-05
0.0111417
1.57782e-05
0.0111585
5.06213e-05
0.0111986
4.36263e-05
0.0112172
9.06765e-05
0.0112572
8.52288e-05
0.0112847
0.000127128
0.0113207
0.000140996
0.0113594
0.000169797
0.0113959
0.000199159
0.0114411
0.000230372
0.0114858
0.000259909
0.0115342
0.000303169
0.0115906
0.000337374
0.0116465
0.000378638
0.0117135
0.000435631
0.0117797
0.000474865
0.0118675
0.000533372
0.011933
0.000617573
0.0120593
0.000638018
0.0121267
0.000782941
0.012281
0.00080528
0.0123909
0.000948076
0.0125379
0.00105662
0.0127264
0.00117247
0.0128769
0.00136544
0.0130969
0.00155132
0.0132967
0.00180038
0.0135034
0.00208763
0.0137041
0.00247181
0.0138736
0.00288289
0.0140208
0.00337093
0.00399518
0.0140811
0.0100068
-2.09957e-05
0.0100271
-6.60106e-05
0.0100515
-9.32614e-05
0.0100775
-0.00011681
0.0101
-0.000123742
0.0101231
-0.000133444
0.010143
-0.000133465
0.0101655
-0.000140495
0.0101868
-0.000141742
0.0102114
-0.000149199
0.0102344
-0.00014981
0.0102595
-0.000156602
0.0102827
-0.00015452
0.0103074
-0.000161079
0.0103302
-0.000157267
0.0103547
-0.000163205
0.0103773
-0.000159549
0.0104023
-0.000164787
0.0104248
-0.000161182
0.0104503
-0.000165884
0.0104725
-0.000160914
0.0104981
-0.000165635
0.0105203
-0.00015939
0.0105455
-0.000163659
0.010568
-0.000156844
0.0105927
-0.000160757
0.0106153
-0.000152996
0.0106398
-0.000158166
0.0106619
-0.000147603
0.0106865
-0.000155115
0.0107079
-0.000141328
0.0107321
-0.000149719
0.0107532
-0.000134789
0.0107765
-0.000140823
0.0107978
-0.000127655
0.0108195
-0.000128482
0.010842
-0.000119349
0.0108616
-0.000113218
0.0108859
-0.00010902
0.0109034