/*--------------------------------*- C++ -*----------------------------------*\
| =========                 |                                                 |
| \\      /  F ield         | OpenFOAM: The Open Source CFD Toolbox           |
|  \\    /   O peration     | Version:  2306                                  |
|   \\  /    A nd           | Website:  www.openfoam.com                      |
|    \\/     M anipulation  |                                                 |
\*---------------------------------------------------------------------------*/
FoamFile
{
    version     2.0;
    format      ascii;
    arch        "LSB;label=32;scalar=64";
    class       volVectorField;
    location    "0.125";
    object      U;
}
// * * * * * * * * * * * * * * * * * * * * * * * * * * * * * * * * * * * * * //

dimensions      [0 1 -1 0 0 0 0];

internalField   nonuniform List<vector> 
4400
(
(9.90179 0.0455124 0)
(9.80629 0.0987267 0)
(9.70009 0.120942 0)
(9.57022 0.125794 0)
(9.41822 0.124469 0)
(9.25226 0.123442 0)
(9.08067 0.124123 0)
(8.9084 0.12566 0)
(8.73739 0.126972 0)
(8.56809 0.12737 0)
(8.40032 0.12684 0)
(8.23382 0.1255 0)
(8.06837 0.123712 0)
(7.90391 0.121684 0)
(7.74064 0.119547 0)
(7.57862 0.117452 0)
(7.41804 0.115283 0)
(7.25903 0.113106 0)
(7.1017 0.110875 0)
(6.94626 0.108529 0)
(6.79271 0.106181 0)
(6.6411 0.10373 0)
(6.49168 0.101203 0)
(6.34425 0.0986836 0)
(6.19922 0.096093 0)
(6.05632 0.0934539 0)
(5.91585 0.0908824 0)
(5.77769 0.088219 0)
(5.64208 0.0855338 0)
(5.50878 0.0830065 0)
(5.37823 0.0803146 0)
(5.24999 0.0777215 0)
(5.12441 0.075258 0)
(5.00126 0.072648 0)
(4.88049 0.0702057 0)
(4.76213 0.0678499 0)
(4.646 0.0655246 0)
(4.53204 0.0633055 0)
(4.42001 0.0612899 0)
(4.30996 0.0593893 0)
(4.20124 0.0576404 0)
(4.09398 0.0562312 0)
(3.98766 0.0550613 0)
(3.88215 0.0541761 0)
(3.77656 0.053614 0)
(3.6709 0.0535818 0)
(3.56424 0.0539132 0)
(3.45647 0.0547021 0)
(3.34633 0.0559917 0)
(3.23368 0.0579394 0)
(3.11711 0.0604803 0)
(2.99615 0.0637374 0)
(2.86935 0.0676348 0)
(2.73599 0.0723682 0)
(2.59425 0.0780267 0)
(2.4434 0.0845067 0)
(2.28134 0.0919926 0)
(2.10693 0.100472 0)
(1.9181 0.109968 0)
(1.71355 0.120263 0)
(1.49115 0.13131 0)
(1.24947 0.142669 0)
(0.98699 0.15394 0)
(0.702929 0.16413 0)
(0.396758 0.173114 0)
(0.0675817 0.181899 0)
(-0.28409 0.196578 0)
(-0.66659 0.199469 0)
(-1.07574 0.121508 0)
(-1.41424 -0.114527 0)
(-1.54432 -0.426501 0)
(-1.44027 -0.687016 0)
(-1.18948 -0.862329 0)
(-0.850658 -0.914902 0)
(-0.541344 -0.624599 0)
(-0.379402 0.0474466 0)
(-0.430631 0.698228 0)
(-0.623916 0.87626 0)
(-0.709008 0.511986 0)
(-0.62186 0.0276649 0)
(10.0002 0.0611759 0)
(10.0319 0.137461 0)
(10.0695 0.173588 0)
(10.1051 0.18492 0)
(10.1324 0.186166 0)
(10.1502 0.186164 0)
(10.1589 0.188259 0)
(10.1612 0.191894 0)
(10.1592 0.19585 0)
(10.1541 0.199053 0)
(10.1469 0.200949 0)
(10.1372 0.201944 0)
(10.1255 0.201976 0)
(10.1112 0.201636 0)
(10.0946 0.201121 0)
(10.0755 0.200393 0)
(10.0539 0.199815 0)
(10.0301 0.198985 0)
(10.0043 0.198086 0)
(9.97618 0.197202 0)
(9.94655 0.195899 0)
(9.9145 0.194824 0)
(9.88127 0.193279 0)
(9.84571 0.191805 0)
(9.80904 0.190233 0)
(9.7702 0.188398 0)
(9.73039 0.186708 0)
(9.68829 0.184747 0)
(9.64563 0.182799 0)
(9.60057 0.180803 0)
(9.55494 0.178746 0)
(9.50739 0.176612 0)
(9.45858 0.174606 0)
(9.40872 0.172417 0)
(9.35674 0.170442 0)
(9.30441 0.168463 0)
(9.24938 0.166542 0)
(9.19413 0.164893 0)
(9.13611 0.163296 0)
(9.07746 0.161979 0)
(9.01615 0.161006 0)
(8.95359 0.160226 0)
(8.8883 0.160135 0)
(8.82109 0.16018 0)
(8.75096 0.161122 0)
(8.67796 0.162466 0)
(8.60158 0.164778 0)
(8.52135 0.167777 0)
(8.43712 0.171917 0)
(8.34768 0.177135 0)
(8.25332 0.183615 0)
(8.15201 0.191677 0)
(8.04445 0.201189 0)
(7.92802 0.212598 0)
(7.80331 0.225947 0)
(7.66729 0.24152 0)
(7.52043 0.259377 0)
(7.35923 0.279954 0)
(7.18403 0.302952 0)
(6.99032 0.329249 0)
(6.77921 0.357776 0)
(6.54431 0.389611 0)
(6.2876 0.423525 0)
(6.00176 0.459371 0)
(5.68733 0.497487 0)
(5.34116 0.534294 0)
(4.95814 0.571848 0)
(4.54001 0.603558 0)
(4.07851 0.614778 0)
(3.58773 0.588425 0)
(3.0352 0.513607 0)
(2.3623 0.422866 0)
(1.4568 0.34524 0)
(0.265861 0.30797 0)
(-1.07226 0.169977 0)
(-1.92143 -0.154242 0)
(-2.00053 -0.465185 0)
(-1.89272 -0.655854 0)
(-1.81317 -0.584281 0)
(-1.68457 -0.194911 0)
(10.0001 0.0267042 0)
(10.0168 0.0698498 0)
(10.0427 0.0997447 0)
(10.0749 0.117589 0)
(10.1082 0.126736 0)
(10.1395 0.131786 0)
(10.1672 0.13588 0)
(10.1912 0.140185 0)
(10.213 0.145317 0)
(10.2332 0.15019 0)
(10.2535 0.154732 0)
(10.2735 0.158573 0)
(10.2936 0.161441 0)
(10.3135 0.163865 0)
(10.3327 0.165778 0)
(10.3518 0.167402 0)
(10.3695 0.169043 0)
(10.387 0.170315 0)
(10.4033 0.171586 0)
(10.4191 0.172786 0)
(10.434 0.173655 0)
(10.4479 0.174566 0)
(10.4615 0.175257 0)
(10.4733 0.175607 0)
(10.4856 0.176286 0)
(10.4951 0.17631 0)
(10.5055 0.176589 0)
(10.5132 0.176803 0)
(10.521 0.17642 0)
(10.5272 0.176857 0)
(10.5319 0.176241 0)
(10.5365 0.176437 0)
(10.538 0.176178 0)
(10.5406 0.175971 0)
(10.5391 0.176207 0)
(10.539 0.176037 0)
(10.5347 0.176523 0)
(10.5312 0.176902 0)
(10.5241 0.177742 0)
(10.5168 0.178757 0)
(10.5064 0.18037 0)
(10.4951 0.182274 0)
(10.4808 0.184923 0)
(10.4651 0.188216 0)
(10.446 0.19221 0)
(10.4253 0.19738 0)
(10.4008 0.203288 0)
(10.3739 0.210786 0)
(10.3432 0.219379 0)
(10.3089 0.229947 0)
(10.2707 0.241897 0)
(10.2276 0.256478 0)
(10.1798 0.273012 0)
(10.1262 0.292295 0)
(10.0662 0.314742 0)
(9.99984 0.339826 0)
(9.92469 0.369496 0)
(9.84209 0.401908 0)
(9.74843 0.439853 0)
(9.64494 0.481266 0)
(9.52826 0.528648 0)
(9.39818 0.579755 0)
(9.25228 0.637052 0)
(9.08901 0.69773 0)
(8.90534 0.76377 0)
(8.70078 0.831166 0)
(8.46852 0.898554 0)
(8.20711 0.958719 0)
(7.90265 1.00067 0)
(7.54968 1.01494 0)
(7.13003 1.00773 0)
(6.63419 1.00979 0)
(6.06088 1.06438 0)
(5.42078 1.18711 0)
(4.68568 1.29123 0)
(3.87152 1.19848 0)
(2.95315 0.970673 0)
(1.79931 0.711443 0)
(0.314561 0.373716 0)
(-0.946846 -0.314989 0)
(10.0001 0.0188081 0)
(10.01 0.0526642 0)
(10.0278 0.0805896 0)
(10.0511 0.101224 0)
(10.0779 0.114708 0)
(10.1053 0.122939 0)
(10.1318 0.128436 0)
(10.1564 0.13232 0)
(10.1795 0.136281 0)
(10.2016 0.140037 0)
(10.2236 0.143781 0)
(10.246 0.147392 0)
(10.2681 0.149948 0)
(10.2919 0.152494 0)
(10.3144 0.154069 0)
(10.3389 0.155661 0)
(10.3614 0.156834 0)
(10.3855 0.157843 0)
(10.4081 0.158804 0)
(10.4315 0.159703 0)
(10.4544 0.160491 0)
(10.4769 0.161168 0)
(10.4999 0.161915 0)
(10.5215 0.162212 0)
(10.5445 0.163024 0)
(10.5651 0.16319 0)
(10.5875 0.163626 0)
(10.6076 0.164232 0)
(10.6286 0.163991 0)
(10.6485 0.165106 0)
(10.6674 0.164687 0)
(10.687 0.165707 0)
(10.704 0.165922 0)
(10.7225 0.166499 0)
(10.738 0.167613 0)
(10.7545 0.168235 0)
(10.7687 0.169824 0)
(10.7828 0.17128 0)
(10.7952 0.173267 0)
(10.807 0.175696 0)
(10.8169 0.178656 0)
(10.8264 0.182112 0)
(10.8332 0.186614 0)
(10.8404 0.191421 0)
(10.8435 0.198025 0)
(10.8478 0.20477 0)
(10.847 0.213897 0)
(10.8474 0.223335 0)
(10.8431 0.235474 0)
(10.8379 0.248829 0)
(10.8304 0.264209 0)
(10.8185 0.283004 0)
(10.8068 0.302719 0)
(10.7874 0.327871 0)
(10.7702 0.353513 0)
(10.743 0.386104 0)
(10.7182 0.419407 0)
(10.6827 0.461095 0)
(10.6485 0.50356 0)
(10.6034 0.556091 0)
(10.5571 0.609936 0)
(10.5007 0.673599 0)
(10.4392 0.740262 0)
(10.3688 0.815493 0)
(10.2882 0.892973 0)
(10.1965 0.978465 0)
(10.0898 1.05808 0)
(9.95983 1.14455 0)
(9.80679 1.21343 0)
(9.61051 1.28784 0)
(9.38291 1.35472 0)
(9.09626 1.44042 0)
(8.77793 1.54921 0)
(8.39406 1.66176 0)
(7.96401 1.76568 0)
(7.43613 1.77648 0)
(6.82441 1.76536 0)
(6.09198 1.71901 0)
(5.28677 1.73566 0)
(4.30338 1.52632 0)
(10.0002 0.0134777 0)
(10.0068 0.0382704 0)
(10.0197 0.0604617 0)
(10.0371 0.0778966 0)
(10.0582 0.0903097 0)
(10.0819 0.0989527 0)
(10.1055 0.104213 0)
(10.1293 0.108245 0)
(10.1517 0.111119 0)
(10.1741 0.11418 0)
(10.1958 0.117082 0)
(10.218 0.120134 0)
(10.2398 0.122435 0)
(10.2631 0.125019 0)
(10.2856 0.126511 0)
(10.3099 0.128448 0)
(10.3327 0.129427 0)
(10.3569 0.130606 0)
(10.3803 0.131679 0)
(10.404 0.132392 0)
(10.4279 0.133681 0)
(10.4509 0.134033 0)
(10.4752 0.135368 0)
(10.4978 0.135612 0)
(10.5222 0.136875 0)
(10.5443 0.137233 0)
(10.5684 0.138124 0)
(10.5902 0.138968 0)
(10.6135 0.139352 0)
(10.6353 0.140735 0)
(10.6571 0.141015 0)
(10.6791 0.142492 0)
(10.6993 0.143383 0)
(10.7207 0.144606 0)
(10.7401 0.146516 0)
(10.7598 0.14781 0)
(10.7786 0.150402 0)
(10.7964 0.152649 0)
(10.8139 0.155653 0)
(10.8302 0.159244 0)
(10.8458 0.163087 0)
(10.8607 0.168098 0)
(10.874 0.173488 0)
(10.8873 0.180056 0)
(10.8978 0.187777 0)
(10.9095 0.196311 0)
(10.9167 0.207014 0)
(10.9267 0.217984 0)
(10.9305 0.23256 0)
(10.9379 0.246807 0)
(10.9388 0.265803 0)
(10.9428 0.284855 0)
(10.941 0.309251 0)
(10.9403 0.334248 0)
(10.9364 0.365734 0)
(10.9303 0.397511 0)
(10.9242 0.438275 0)
(10.9125 0.478329 0)
(10.9042 0.529519 0)
(10.8868 0.580986 0)
(10.8759 0.643171 0)
(10.8516 0.70789 0)
(10.8382 0.782584 0)
(10.8068 0.85923 0)
(10.787 0.948584 0)
(10.7471 1.03285 0)
(10.7123 1.13349 0)
(10.6558 1.22418 0)
(10.5933 1.32736 0)
(10.5029 1.43288 0)
(10.4052 1.54051 0)
(10.2571 1.6716 0)
(10.1169 1.79905 0)
(9.89022 1.93808 0)
(9.69099 2.07765 0)
(9.36175 2.16971 0)
(9.05942 2.28477 0)
(8.57007 2.305 0)
(8.10851 2.35737 0)
(7.35281 2.22726 0)
(10 0.00971634 0)
(10.0053 0.0278615 0)
(10.0151 0.0448386 0)
(10.029 0.0588147 0)
(10.0462 0.0695709 0)
(10.0669 0.0779001 0)
(10.0879 0.0830017 0)
(10.1104 0.0872009 0)
(10.1321 0.0896903 0)
(10.1541 0.0924274 0)
(10.1761 0.0948756 0)
(10.1974 0.097231 0)
(10.2198 0.0994193 0)
(10.2418 0.101601 0)
(10.2648 0.103232 0)
(10.2879 0.105075 0)
(10.3111 0.106012 0)
(10.3343 0.107251 0)
(10.3584 0.108282 0)
(10.3811 0.108947 0)
(10.4058 0.110347 0)
(10.4279 0.110503 0)
(10.4529 0.112088 0)
(10.475 0.112268 0)
(10.4997 0.113725 0)
(10.5217 0.114175 0)
(10.5461 0.115318 0)
(10.5677 0.116199 0)
(10.5916 0.117147 0)
(10.6132 0.11839 0)
(10.6359 0.119464 0)
(10.6575 0.120897 0)
(10.679 0.12248 0)
(10.7001 0.124018 0)
(10.7211 0.126483 0)
(10.7401 0.128273 0)
(10.7616 0.131525 0)
(10.7782 0.134397 0)
(10.7992 0.137969 0)
(10.8141 0.142685 0)
(10.8338 0.146745 0)
(10.8475 0.15336 0)
(10.8651 0.158939 0)
(10.8781 0.167091 0)
(10.8928 0.175452 0)
(10.9055 0.185243 0)
(10.9162 0.197016 0)
(10.9293 0.209262 0)
(10.9357 0.224896 0)
(10.9487 0.240736 0)
(10.9514 0.260636 0)
(10.9636 0.281756 0)
(10.9632 0.306519 0)
(10.9733 0.334581 0)
(10.9713 0.365226 0)
(10.9782 0.401729 0)
(10.9757 0.44001 0)
(10.9791 0.485933 0)
(10.9765 0.53449 0)
(10.9779 0.590601 0)
(10.9733 0.65224 0)
(10.9746 0.719336 0)
(10.9674 0.794321 0)
(10.9692 0.875839 0)
(10.9578 0.960333 0)
(10.9574 1.05987 0)
(10.9397 1.15133 0)
(10.9296 1.2673 0)
(10.9027 1.37292 0)
(10.8702 1.50009 0)
(10.8351 1.63217 0)
(10.7624 1.76857 0)
(10.7123 1.93133 0)
(10.588 2.07765 0)
(10.5086 2.25283 0)
(10.3175 2.40564 0)
(10.1877 2.55252 0)
(9.86516 2.67885 0)
(9.62856 2.77854 0)
(9.10579 2.82345 0)
(9.99986 0.00690033 0)
(10.0044 0.0198854 0)
(10.0127 0.0328393 0)
(10.024 0.0429364 0)
(10.0392 0.0520833 0)
(10.0571 0.0589655 0)
(10.0766 0.0636636 0)
(10.0974 0.0675165 0)
(10.1185 0.0695633 0)
(10.1401 0.0720329 0)
(10.1622 0.073996 0)
(10.1828 0.0755434 0)
(10.2056 0.0776409 0)
(10.2268 0.0791272 0)
(10.2503 0.0808348 0)
(10.2722 0.0824316 0)
(10.2958 0.0830073 0)
(10.3183 0.0846739 0)
(10.3427 0.0849997 0)
(10.3648 0.0863089 0)
(10.3899 0.0870293 0)
(10.4114 0.0876139 0)
(10.4368 0.0889178 0)
(10.4587 0.0893113 0)
(10.4833 0.0907365 0)
(10.5056 0.091347 0)
(10.5293 0.0925918 0)
(10.5518 0.0936626 0)
(10.5748 0.0948115 0)
(10.5974 0.0963458 0)
(10.6193 0.0975785 0)
(10.6419 0.0995775 0)
(10.6626 0.101125 0)
(10.6851 0.103577 0)
(10.705 0.10593 0)
(10.726 0.108617 0)
(10.7461 0.112206 0)
(10.765 0.115534 0)
(10.7847 0.120002 0)
(10.8022 0.124993 0)
(10.8206 0.130011 0)
(10.8372 0.13731 0)
(10.8539 0.143324 0)
(10.8694 0.152983 0)
(10.8847 0.161053 0)
(10.8987 0.173124 0)
(10.912 0.184094 0)
(10.9253 0.199029 0)
(10.9359 0.213868 0)
(10.9487 0.232091 0)
(10.9566 0.251883 0)
(10.9696 0.274592 0)
(10.9743 0.300035 0)
(10.9873 0.328758 0)
(10.9893 0.361046 0)
(11.0021 0.396863 0)
(11.0026 0.437925 0)
(11.0146 0.482184 0)
(11.0153 0.532664 0)
(11.0268 0.589633 0)
(11.0279 0.648073 0)
(11.0378 0.721067 0)
(11.0419 0.78971 0)
(11.0489 0.875427 0)
(11.0555 0.962397 0)
(11.059 1.05443 0)
(11.0641 1.16569 0)
(11.0647 1.26663 0)
(11.0602 1.39878 0)
(11.0578 1.52055 0)
(11.0374 1.66674 0)
(11.0248 1.82042 0)
(10.9876 1.97924 0)
(10.943 2.16128 0)
(10.897 2.34244 0)
(10.8023 2.52127 0)
(10.7163 2.72786 0)
(10.5645 2.88094 0)
(10.3612 3.07199 0)
(10.1173 3.23556 0)
(9.99994 0.0046062 0)
(10.0038 0.0134747 0)
(10.0113 0.0226833 0)
(10.0207 0.0291652 0)
(10.0351 0.0364835 0)
(10.0508 0.0412142 0)
(10.0692 0.0451168 0)
(10.0886 0.0480787 0)
(10.1093 0.0495202 0)
(10.1307 0.0519145 0)
(10.1523 0.0528922 0)
(10.1729 0.0542593 0)
(10.1958 0.0556525 0)
(10.2166 0.0568849 0)
(10.2404 0.0582581 0)
(10.2613 0.0595892 0)
(10.2855 0.0598162 0)
(10.3072 0.0617225 0)
(10.3322 0.0614668 0)
(10.3534 0.0632769 0)
(10.3794 0.0633764 0)
(10.3998 0.0643476 0)
(10.4264 0.0654269 0)
(10.4471 0.0659389 0)
(10.4725 0.0674337 0)
(10.4946 0.0680684 0)
(10.5181 0.0695286 0)
(10.5415 0.0706518 0)
(10.5634 0.0721535 0)
(10.5875 0.0737014 0)
(10.6079 0.0754715 0)
(10.6325 0.0774471 0)
(10.6514 0.0796445 0)
(10.6765 0.082181 0)
(10.6939 0.0851719 0)
(10.7185 0.0880143 0)
(10.7355 0.0924641 0)
(10.7584 0.0957127 0)
(10.7752 0.101441 0)
(10.7965 0.106207 0)
(10.8128 0.112526 0)
(10.8324 0.119906 0)
(10.8486 0.126931 0)
(10.8656 0.136948 0)
(10.8829 0.146047 0)
(10.896 0.158319 0)
(10.9143 0.170547 0)
(10.9248 0.185667 0)
(10.9425 0.201592 0)
(10.9517 0.220202 0)
(10.968 0.240994 0)
(10.9775 0.263831 0)
(10.991 0.290445 0)
(11.0018 0.319259 0)
(11.0124 0.351757 0)
(11.0245 0.389037 0)
(11.0342 0.42838 0)
(11.0453 0.474322 0)
(11.0584 0.52515 0)
(11.067 0.57717 0)
(11.0834 0.64538 0)
(11.0909 0.702216 0)
(11.1093 0.78887 0)
(11.1187 0.857105 0)
(11.135 0.954775 0)
(11.1498 1.04693 0)
(11.1583 1.14929 0)
(11.1795 1.2727 0)
(11.1785 1.38382 0)
(11.1946 1.53346 0)
(11.1953 1.6715 0)
(11.1904 1.82983 0)
(11.1871 2.02002 0)
(11.1663 2.1769 0)
(11.1331 2.40648 0)
(11.0986 2.59511 0)
(11.0313 2.80786 0)
(10.9311 3.04923 0)
(10.8316 3.2565 0)
(10.6314 3.48331 0)
(10 0.002438 0)
(10.0036 0.00816583 0)
(10.0102 0.0133404 0)
(10.0189 0.0169045 0)
(10.0328 0.021995 0)
(10.0471 0.0243577 0)
(10.0647 0.0271542 0)
(10.0833 0.028873 0)
(10.1035 0.0297204 0)
(10.1251 0.0318087 0)
(10.1455 0.0317964 0)
(10.1671 0.033047 0)
(10.1892 0.033894 0)
(10.2107 0.0346392 0)
(10.2339 0.0360538 0)
(10.2548 0.0364334 0)
(10.2788 0.037086 0)
(10.3005 0.0384483 0)
(10.3254 0.0381868 0)
(10.3468 0.0401223 0)
(10.3724 0.0396228 0)
(10.3932 0.0411978 0)
(10.4197 0.0416999 0)
(10.4406 0.0426539 0)
(10.4658 0.0439602 0)
(10.4885 0.0447657 0)
(10.511 0.0463001 0)
(10.5362 0.0476644 0)
(10.5561 0.0491933 0)
(10.5827 0.0511427 0)
(10.6009 0.05295 0)
(10.628 0.055392 0)
(10.6452 0.0576518 0)
(10.6722 0.060855 0)
(10.6885 0.0636915 0)
(10.7147 0.06756 0)
(10.7313 0.0717386 0)
(10.7553 0.0759237 0)
(10.7724 0.0819605 0)
(10.7944 0.0869136 0)
(10.8114 0.0944312 0)
(10.8322 0.101369 0)
(10.8484 0.109956 0)
(10.8682 0.119601 0)
(10.8843 0.129903 0)
(10.9016 0.14232 0)
(10.9184 0.155175 0)
(10.9334 0.17099 0)
(10.9503 0.186884 0)
(10.9637 0.206877 0)
(10.9812 0.22674 0)
(10.9929 0.251487 0)
(11.0114 0.277004 0)
(11.0213 0.306362 0)
(11.0408 0.340455 0)
(11.0507 0.37363 0)
(11.0697 0.419047 0)
(11.0821 0.457544 0)
(11.1006 0.512914 0)
(11.1169 0.564517 0)
(11.1338 0.623144 0)
(11.155 0.696945 0)
(11.171 0.757339 0)
(11.196 0.852821 0)
(11.2145 0.924529 0)
(11.2367 1.03401 0)
(11.2654 1.131 0)
(11.2762 1.24719 0)
(11.3118 1.38204 0)
(11.3182 1.50467 0)
(11.3429 1.67225 0)
(11.3562 1.8322 0)
(11.3593 1.99888 0)
(11.3579 2.22853 0)
(11.3583 2.39761 0)
(11.313 2.65312 0)
(11.2983 2.88972 0)
(11.2205 3.12249 0)
(11.1364 3.4107 0)
(11.0212 3.69352 0)
(9.99986 0.000423421 0)
(10.0038 0.00340714 0)
(10.0091 0.00424993 0)
(10.0187 0.00569594 0)
(10.0314 0.00801795 0)
(10.0457 0.00795443 0)
(10.0623 0.00979164 0)
(10.0813 0.0095162 0)
(10.1005 0.0106968 0)
(10.123 0.0112622 0)
(10.1417 0.011132 0)
(10.1651 0.0118193 0)
(10.1855 0.0122796 0)
(10.2086 0.0127844 0)
(10.2302 0.0136355 0)
(10.2521 0.0136798 0)
(10.2753 0.0141594 0)
(10.2978 0.0154379 0)
(10.3219 0.0147651 0)
(10.3441 0.0171111 0)
(10.369 0.0157019 0)
(10.3905 0.0182672 0)
(10.4169 0.0177484 0)
(10.4377 0.019602 0)
(10.4637 0.0202377 0)
(10.4853 0.0216473 0)
(10.5097 0.0228307 0)
(10.5329 0.0248149 0)
(10.5554 0.025921 0)
(10.5794 0.0287292 0)
(10.6011 0.0300194 0)
(10.6245 0.0333556 0)
(10.6465 0.0354075 0)
(10.6691 0.0390631 0)
(10.6905 0.0423528 0)
(10.7128 0.0460948 0)
(10.7335 0.0513411 0)
(10.7554 0.054869 0)
(10.7746 0.0626071 0)
(10.7971 0.0663418 0)
(10.8138 0.0761039 0)
(10.8379 0.0814988 0)
(10.8512 0.0925183 0)
(10.8771 0.100556 0)
(10.8886 0.113334 0)
(10.9133 0.12393 0)
(10.9257 0.139606 0)
(10.9478 0.152925 0)
(10.9615 0.172346 0)
(10.9817 0.188843 0)
(10.9964 0.213156 0)
(11.0164 0.233356 0)
(11.0307 0.263112 0)
(11.0521 0.289837 0)
(11.065 0.322522 0)
(11.0897 0.361705 0)
(11.1007 0.394343 0)
(11.1295 0.448669 0)
(11.1416 0.485655 0)
(11.1722 0.549558 0)
(11.1885 0.601933 0)
(11.2176 0.668124 0)
(11.2433 0.744434 0)
(11.268 0.812085 0)
(11.3033 0.914169 0)
(11.3291 0.990939 0)
(11.3631 1.11176 0)
(11.4001 1.21883 0)
(11.4246 1.34133 0)
(11.4635 1.49789 0)
(11.4952 1.63242 0)
(11.5142 1.81026 0)
(11.5519 2.01376 0)
(11.5535 2.17696 0)
(11.5688 2.44954 0)
(11.5593 2.65973 0)
(11.5486 2.91793 0)
(11.4841 3.22785 0)
(11.4664 3.50491 0)
(11.3229 3.79941 0)
(9.99924 -0.0013782 0)
(10.0045 -0.00148652 0)
(10.0079 -0.00463134 0)
(10.02 -0.00513717 0)
(10.0306 -0.00603567 0)
(10.0465 -0.0080906 0)
(10.0618 -0.00769983 0)
(10.082 -0.00944863 0)
(10.1007 -0.00857239 0)
(10.1233 -0.00903604 0)
(10.1414 -0.00984896 0)
(10.1656 -0.00881181 0)
(10.1855 -0.0098064 0)
(10.209 -0.00833669 0)
(10.2302 -0.00942894 0)
(10.2518 -0.00843176 0)
(10.2763 -0.00917425 0)
(10.2971 -0.00743106 0)
(10.3236 -0.00873696 0)
(10.343 -0.00623141 0)
(10.3713 -0.00807557 0)
(10.3894 -0.0050895 0)
(10.42 -0.00607825 0)
(10.4363 -0.00385024 0)
(10.4676 -0.00332734 0)
(10.4837 -0.00200626 0)
(10.5142 -0.000207332 0)
(10.5317 0.00105436 0)
(10.5599 0.00339914 0)
(10.5791 0.00506167 0)
(10.6054 0.00796647 0)
(10.6255 0.00994614 0)
(10.6505 0.0138552 0)
(10.6716 0.0161212 0)
(10.6945 0.0210902 0)
(10.7172 0.0240616 0)
(10.7376 0.0301743 0)
(10.7617 0.0338303 0)
(10.7793 0.0418237 0)
(10.8052 0.0459214 0)
(10.8197 0.0561667 0)
(10.848 0.061423 0)
(10.8584 0.0734856 0)
(10.8901 0.0809486 0)
(10.897 0.0948742 0)
(10.93 0.104978 0)
(10.9356 0.121267 0)
(10.9687 0.135039 0)
(10.9738 0.152908 0)
(11.0072 0.173243 0)
(11.0124 0.190958 0)
(11.0461 0.220279 0)
(11.0532 0.238847 0)
(11.0848 0.275379 0)
(11.0968 0.301162 0)
(11.1258 0.338798 0)
(11.143 0.380362 0)
(11.1705 0.415157 0)
(11.1953 0.474785 0)
(11.2208 0.512448 0)
(11.2524 0.583101 0)
(11.2812 0.636477 0)
(11.3122 0.709671 0)
(11.3547 0.789554 0)
(11.3803 0.862531 0)
(11.4333 0.973316 0)
(11.4664 1.05662 0)
(11.5143 1.1833 0)
(11.5585 1.31161 0)
(11.6064 1.43328 0)
(11.6457 1.61406 0)
(11.7039 1.77387 0)
(11.7287 1.95173 0)
(11.7772 2.20337 0)
(11.7951 2.39821 0)
(11.8154 2.66252 0)
(11.8135 2.98727 0)
(11.8023 3.21599 0)
(11.7465 3.59871 0)
(11.712 3.96547 0)
(9.99916 -0.00303529 0)
(10.0045 -0.00677155 0)
(10.0083 -0.0137235 0)
(10.021 -0.0159374 0)
(10.0321 -0.0210678 0)
(10.0475 -0.0236465 0)
(10.065 -0.0259758 0)
(10.0836 -0.0279118 0)
(10.1052 -0.0281984 0)
(10.1243 -0.0296235 0)
(10.1464 -0.0302898 0)
(10.167 -0.0302807 0)
(10.1908 -0.0310223 0)
(10.2102 -0.0306334 0)
(10.2354 -0.0316485 0)
(10.253 -0.0315397 0)
(10.2825 -0.0316618 0)
(10.2985 -0.031409 0)
(10.3302 -0.0313072 0)
(10.3444 -0.0309361 0)
(10.3781 -0.0307229 0)
(10.3917 -0.029925 0)
(10.4267 -0.028855 0)
(10.4394 -0.0286468 0)
(10.474 -0.0260662 0)
(10.4878 -0.026754 0)
(10.5201 -0.022662 0)
(10.537 -0.0235819 0)
(10.5652 -0.0188861 0)
(10.5858 -0.0191402 0)
(10.6103 -0.0144237 0)
(10.6335 -0.0135334 0)
(10.6557 -0.00861619 0)
(10.6805 -0.00671342 0)
(10.7006 -0.00119664 0)
(10.7269 0.00183965 0)
(10.745 0.00811516 0)
(10.7723 0.0124874 0)
(10.7884 0.0197229 0)
(10.8168 0.0258374 0)
(10.8306 0.0337823 0)
(10.8611 0.0426823 0)
(10.8711 0.0507184 0)
(10.9056 0.0634598 0)
(10.9114 0.0717187 0)
(10.9482 0.0882074 0)
(10.9529 0.098407 0)
(10.9892 0.117184 0)
(10.9955 0.132495 0)
(11.0301 0.151067 0)
(11.039 0.175622 0)
(11.073 0.191509 0)
(11.0843 0.227582 0)
(11.1177 0.243351 0)
(11.1325 0.286047 0)
(11.1669 0.3121 0)
(11.1826 0.351869 0)
(11.2238 0.39809 0)
(11.2371 0.432548 0)
(11.2892 0.498097 0)
(11.3007 0.53514 0)
(11.3592 0.614502 0)
(11.3797 0.663746 0)
(11.4357 0.749952 0)
(11.4723 0.827217 0)
(11.5278 0.911578 0)
(11.5731 1.02169 0)
(11.6399 1.12837 0)
(11.682 1.24049 0)
(11.7618 1.40657 0)
(11.8046 1.53537 0)
(11.8891 1.70976 0)
(11.9294 1.94632 0)
(12.0044 2.09615 0)
(12.042 2.39672 0)
(12.0935 2.67211 0)
(12.0964 2.88924 0)
(12.1538 3.35277 0)
(12.0563 3.58323 0)
(12.1009 4.00898 0)
(10.0006 -0.00473229 0)
(10.003 -0.012704 0)
(10.0109 -0.0228268 0)
(10.0212 -0.028061 0)
(10.036 -0.0362669 0)
(10.0495 -0.0403681 0)
(10.0711 -0.0439865 0)
(10.0872 -0.0473449 0)
(10.1126 -0.0472591 0)
(10.1283 -0.0512017 0)
(10.1544 -0.0497244 0)
(10.1719 -0.0529087 0)
(10.1987 -0.0514063 0)
(10.2157 -0.0541008 0)
(10.2427 -0.0534165 0)
(10.26 -0.0552724 0)
(10.2895 -0.0542477 0)
(10.3069 -0.0555676 0)
(10.3367 -0.0543751 0)
(10.3541 -0.0555537 0)
(10.3844 -0.0539202 0)
(10.4026 -0.054543 0)
(10.4326 -0.0523554 0)
(10.4511 -0.0528918 0)
(10.4797 -0.0499741 0)
(10.5 -0.0503719 0)
(10.5262 -0.0468896 0)
(10.5493 -0.0466192 0)
(10.572 -0.0433865 0)
(10.598 -0.0416427 0)
(10.6184 -0.039166 0)
(10.6457 -0.0354911 0)
(10.6652 -0.0335197 0)
(10.6931 -0.0281245 0)
(10.7115 -0.0260942 0)
(10.7403 -0.0190003 0)
(10.7571 -0.016597 0)
(10.787 -0.00791824 0)
(10.802 -0.00433561 0)
(10.8325 0.00532778 0)
(10.8466 0.0111048 0)
(10.8772 0.0212542 0)
(10.8904 0.0300808 0)
(10.9221 0.0402957 0)
(10.9341 0.0534755 0)
(10.9662 0.0628126 0)
(10.9785 0.0821091 0)
(11.0101 0.0904009 0)
(11.0237 0.115182 0)
(11.0553 0.126983 0)
(11.07 0.151439 0)
(11.1034 0.17467 0)
(11.1187 0.19358 0)
(11.1541 0.231025 0)
(11.1715 0.248765 0)
(11.209 0.292601 0)
(11.2301 0.321809 0)
(11.2686 0.362175 0)
(11.2993 0.411823 0)
(11.3341 0.446336 0)
(11.3794 0.517681 0)
(11.412 0.553061 0)
(11.4657 0.637753 0)
(11.5119 0.691923 0)
(11.5619 0.776185 0)
(11.6269 0.862385 0)
(11.684 0.95806 0)
(11.752 1.05185 0)
(11.829 1.20369 0)
(11.8955 1.29603 0)
(11.9896 1.47495 0)
(12.0602 1.66946 0)
(12.1505 1.78253 0)
(12.2491 2.12686 0)
(12.2776 2.27568 0)
(12.4185 2.59224 0)
(12.4237 2.96884 0)
(12.4375 3.19738 0)
(12.5635 3.71822 0)
(12.355 4.0405 0)
(10.0015 -0.00632278 0)
(10.0028 -0.0202196 0)
(10.013 -0.032027 0)
(10.0238 -0.0425726 0)
(10.0399 -0.0516423 0)
(10.056 -0.0583728 0)
(10.0777 -0.0624469 0)
(10.097 -0.066775 0)
(10.1202 -0.067452 0)
(10.1394 -0.0717473 0)
(10.1625 -0.0704607 0)
(10.1841 -0.0746155 0)
(10.2065 -0.0730238 0)
(10.2286 -0.0769362 0)
(10.2502 -0.0761895 0)
(10.2746 -0.0781761 0)
(10.2971 -0.0782369 0)
(10.3228 -0.0784031 0)
(10.3443 -0.0794237 0)
(10.3707 -0.0783502 0)
(10.3926 -0.0793799 0)
(10.4194 -0.0772169 0)
(10.4417 -0.0780873 0)
(10.4673 -0.07525 0)
(10.49 -0.0759729 0)
(10.5156 -0.0722624 0)
(10.5377 -0.0730311 0)
(10.5644 -0.0683175 0)
(10.5848 -0.0695025 0)
(10.6131 -0.0633815 0)
(10.6324 -0.065169 0)
(10.6612 -0.0572651 0)
(10.6807 -0.0593515 0)
(10.709 -0.0499779 0)
(10.7288 -0.0512964 0)
(10.7567 -0.0414135 0)
(10.7763 -0.0403976 0)
(10.8039 -0.0313463 0)
(10.8234 -0.026475 0)
(10.8499 -0.0188928 0)
(10.8704 -0.0100933 0)
(10.8954 -0.00259513 0)
(10.9164 0.00806942 0)
(10.9419 0.0189542 0)
(10.9619 0.0277363 0)
(10.9888 0.0460989 0)
(11.0079 0.0509939 0)
(11.036 0.0774746 0)
(11.056 0.081608 0)
(11.084 0.110909 0)
(11.1067 0.123961 0)
(11.1346 0.145676 0)
(11.1615 0.178071 0)
(11.1875 0.187509 0)
(11.2219 0.238517 0)
(11.2458 0.245266 0)
(11.2867 0.302175 0)
(11.3151 0.321764 0)
(11.3559 0.375066 0)
(11.3981 0.412789 0)
(11.4367 0.464636 0)
(11.4889 0.52054 0)
(11.5369 0.574095 0)
(11.5934 0.648485 0)
(11.6553 0.710396 0)
(11.7198 0.805887 0)
(11.7951 0.866705 0)
(11.8727 1.02271 0)
(11.955 1.04739 0)
(12.0621 1.28327 0)
(12.1324 1.34279 0)
(12.2755 1.53281 0)
(12.3686 1.78867 0)
(12.439 1.89365 0)
(12.6748 2.26407 0)
(12.5871 2.50932 0)
(12.8703 2.81903 0)
(12.8248 3.27331 0)
(12.8886 3.60955 0)
(12.9311 4.1257 0)
(10.0007 -0.00876631 0)
(10.0049 -0.0286396 0)
(10.0147 -0.0439023 0)
(10.0297 -0.0586563 0)
(10.0458 -0.0693508 0)
(10.0672 -0.0767481 0)
(10.0876 -0.0825871 0)
(10.1117 -0.08555 0)
(10.1318 -0.0889905 0)
(10.1556 -0.0910967 0)
(10.1752 -0.0925861 0)
(10.2005 -0.0955089 0)
(10.2199 -0.0958531 0)
(10.2449 -0.0991467 0)
(10.265 -0.0995788 0)
(10.2915 -0.100569 0)
(10.313 -0.102537 0)
(10.3399 -0.10069 0)
(10.3607 -0.104611 0)
(10.388 -0.100532 0)
(10.4098 -0.104859 0)
(10.4365 -0.0995308 0)
(10.4597 -0.103426 0)
(10.484 -0.0978504 0)
(10.5093 -0.100835 0)
(10.532 -0.0953217 0)
(10.5584 -0.0971876 0)
(10.5807 -0.0922644 0)
(10.607 -0.0927972 0)
(10.6293 -0.0883971 0)
(10.6566 -0.0877055 0)
(10.6775 -0.0830195 0)
(10.7067 -0.0815438 0)
(10.7258 -0.0757462 0)
(10.7561 -0.0736823 0)
(10.7747 -0.0663744 0)
(10.8044 -0.0634914 0)
(10.8236 -0.0549478 0)
(10.8521 -0.0504075 0)
(10.8713 -0.0415119 0)
(10.9004 -0.0340147 0)
(10.9177 -0.0258054 0)
(10.9494 -0.0140635 0)
(10.9636 -0.00747352 0)
(10.9992 0.00991807 0)
(11.0099 0.0133316 0)
(11.0496 0.0391532 0)
(11.0579 0.037863 0)
(11.101 0.0731313 0)
(11.1098 0.0693298 0)
(11.1522 0.11005 0)
(11.1684 0.111639 0)
(11.2043 0.148831 0)
(11.2333 0.165936 0)
(11.2605 0.192604 0)
(11.3052 0.230489 0)
(11.3237 0.246339 0)
(11.3852 0.304057 0)
(11.398 0.315868 0)
(11.4732 0.384545 0)
(11.4915 0.405733 0)
(11.5677 0.477647 0)
(11.6064 0.508743 0)
(11.6811 0.601709 0)
(11.739 0.626579 0)
(11.8199 0.739714 0)
(11.9052 0.813328 0)
(11.9702 0.855489 0)
(12.1337 1.07718 0)
(12.1269 1.04059 0)
(12.4115 1.31251 0)
(12.3507 1.41311 0)
(12.6602 1.56461 0)
(12.7024 1.86838 0)
(12.8686 2.05819 0)
(13.0463 2.36897 0)
(13.1746 2.76509 0)
(13.2207 3.11395 0)
(13.4568 3.62962 0)
(13.308 4.09793 0)
(10.0024 -0.0124943 0)
(10.0046 -0.0391628 0)
(10.0214 -0.0595892 0)
(10.0353 -0.0780864 0)
(10.0606 -0.0896067 0)
(10.0796 -0.0981889 0)
(10.1082 -0.103604 0)
(10.1273 -0.107058 0)
(10.1548 -0.110598 0)
(10.1721 -0.112831 0)
(10.1995 -0.115299 0)
(10.2169 -0.118547 0)
(10.2454 -0.119199 0)
(10.2614 -0.123225 0)
(10.2923 -0.122543 0)
(10.3085 -0.125386 0)
(10.3415 -0.125215 0)
(10.3571 -0.126195 0)
(10.3894 -0.127096 0)
(10.4057 -0.126554 0)
(10.4387 -0.127067 0)
(10.4545 -0.126066 0)
(10.4889 -0.125223 0)
(10.5019 -0.124861 0)
(10.5394 -0.121965 0)
(10.5498 -0.122954 0)
(10.5898 -0.117646 0)
(10.5983 -0.12068 0)
(10.64 -0.112757 0)
(10.6467 -0.117442 0)
(10.691 -0.107502 0)
(10.6949 -0.112223 0)
(10.7418 -0.101542 0)
(10.7438 -0.104555 0)
(10.7911 -0.0939334 0)
(10.7936 -0.0947579 0)
(10.8387 -0.0833681 0)
(10.8438 -0.0837808 0)
(10.8855 -0.0686185 0)
(10.8929 -0.0723394 0)
(10.9331 -0.0492134 0)
(10.9411 -0.0596976 0)
(10.9808 -0.0267421 0)
(10.9903 -0.0426197 0)
(11.0275 -0.00448037 0)
(11.043 -0.0166919 0)
(11.0724 0.0146127 0)
(11.1005 0.0206383 0)
(11.1172 0.0323515 0)
(11.1617 0.0644163 0)
(11.1662 0.0584761 0)
(11.223 0.106166 0)
(11.2262 0.101816 0)
(11.2812 0.143615 0)
(11.2995 0.160137 0)
(11.3428 0.187244 0)
(11.3807 0.222645 0)
(11.4192 0.246867 0)
(11.4667 0.291442 0)
(11.5113 0.315287 0)
(11.5722 0.383755 0)
(11.6052 0.381589 0)
(11.7133 0.504 0)
(11.7125 0.465313 0)
(11.8707 0.626369 0)
(11.8695 0.610363 0)
(12.0302 0.720481 0)
(12.0884 0.838898 0)
(12.2086 0.823558 0)
(12.3673 1.08123 0)
(12.4391 1.06589 0)
(12.6644 1.28824 0)
(12.8085 1.45107 0)
(12.9314 1.62162 0)
(13.2719 1.90983 0)
(13.276 2.20095 0)
(13.6395 2.5399 0)
(13.7185 3.04133 0)
(13.9093 3.49156 0)
(13.938 4.10285 0)
(10.0083 -0.017457 0)
(10.002 -0.0543397 0)
(10.0355 -0.078904 0)
(10.0439 -0.102544 0)
(10.0861 -0.112406 0)
(10.0977 -0.123982 0)
(10.1398 -0.126397 0)
(10.149 -0.132996 0)
(10.1883 -0.134555 0)
(10.1943 -0.140115 0)
(10.2331 -0.141471 0)
(10.2395 -0.147234 0)
(10.2792 -0.146172 0)
(10.2853 -0.152328 0)
(10.3261 -0.14907 0)
(10.3334 -0.154854 0)
(10.3744 -0.151266 0)
(10.3821 -0.156221 0)
(10.4209 -0.152744 0)
(10.4304 -0.156888 0)
(10.4684 -0.152591 0)
(10.4783 -0.156265 0)
(10.5168 -0.151187 0)
(10.5244 -0.154198 0)
(10.5657 -0.148703 0)
(10.5707 -0.151256 0)
(10.6141 -0.145031 0)
(10.6169 -0.148497 0)
(10.6618 -0.140005 0)
(10.6627 -0.145416 0)
(10.709 -0.13405 0)
(10.708 -0.140371 0)
(10.7542 -0.127594 0)
(10.7543 -0.132166 0)
(10.7959 -0.120399 0)
(10.8026 -0.120407 0)
(10.834 -0.112196 0)
(10.852 -0.105053 0)
(10.8705 -0.102663 0)
(10.9007 -0.0867839 0)
(10.9088 -0.0906359 0)
(10.9464 -0.0667116 0)
(10.9516 -0.074899 0)
(10.9879 -0.0454567 0)
(11.0008 -0.0543055 0)
(11.0258 -0.0226384 0)
(11.0557 -0.0294203 0)
(11.0643 0.00399939 0)
(11.1116 -0.00310002 0)
(11.1116 0.0373064 0)
(11.1652 0.0256838 0)
(11.1713 0.0741364 0)
(11.2206 0.0649547 0)
(11.2368 0.109236 0)
(11.2901 0.118082 0)
(11.3037 0.149346 0)
(11.3744 0.172966 0)
(11.3878 0.208594 0)
(11.4593 0.223833 0)
(11.5061 0.286837 0)
(11.5478 0.282373 0)
(11.6449 0.375887 0)
(11.6709 0.350523 0)
(11.7957 0.494227 0)
(11.8313 0.415592 0)
(11.9727 0.637313 0)
(12.0445 0.536037 0)
(12.1495 0.725026 0)
(12.3647 0.783888 0)
(12.3368 0.795629 0)
(12.7375 1.03823 0)
(12.6811 1.04743 0)
(13.0587 1.23332 0)
(13.2216 1.44438 0)
(13.4757 1.64167 0)
(13.6971 1.88421 0)
(14.1149 2.36583 0)
(14.1712 2.71999 0)
(14.5428 3.34619 0)
(14.6651 4.04577 0)
(10.013 -0.025306 0)
(10.0048 -0.0716908 0)
(10.0549 -0.0976137 0)
(10.0646 -0.119324 0)
(10.1197 -0.124032 0)
(10.1296 -0.133611 0)