/*--------------------------------*- C++ -*----------------------------------*\
| =========                 |                                                 |
| \\      /  F ield         | OpenFOAM: The Open Source CFD Toolbox           |
|  \\    /   O peration     | Version:  2306                                  |
|   \\  /    A nd           | Website:  www.openfoam.com                      |
|    \\/     M anipulation  |                                                 |
\*---------------------------------------------------------------------------*/
FoamFile
{
    version     2.0;
    format      ascii;
    arch        "LSB;label=32;scalar=64";
    class       volScalarField;
    location    "0.1";
    object      p;
}
// * * * * * * * * * * * * * * * * * * * * * * * * * * * * * * * * * * * * * //

dimensions      [0 2 -2 0 0 0 0];

internalField   nonuniform List<scalar> 
17600
(
422.42
420.376
418.598
417.368
416.605
416.098
415.68
415.273
414.855
414.432
414.011
413.599
413.195
412.798
412.406
412.019
411.638
411.265
410.904
410.557
410.228
409.921
409.637
409.377
409.144
408.936
408.753
408.594
408.456
408.337
408.234
408.144
408.064
407.993
407.928
407.866
407.807
407.748
407.69
407.632
407.572
407.51
407.447
407.383
407.316
407.249
407.179
407.109
407.038
406.965
406.892
406.819
406.746
406.672
406.598
406.525
406.452
406.38
406.308
406.237
406.167
406.097
406.029
405.961
405.894
405.829
405.765
405.702
405.64
405.58
405.521
405.463
405.407
405.352
405.299
405.248
405.198
405.151
405.105
405.06
405.018
404.978
404.941
404.905
404.872
404.841
404.813
404.788
404.765
404.745
404.729
404.715
404.705
404.699
404.696
404.697
404.703
404.712
404.726
404.745
404.768
404.797
404.831
404.87
404.915
404.966
405.024
405.088
405.159
405.237
405.323
405.416
405.517
405.626
405.744
405.87
406.005
406.15
406.303
406.467
406.64
406.823
407.015
407.218
407.43
407.652
407.884
408.125
408.375
408.633
408.899
409.172
409.452
409.737
410.027
410.319
410.613
410.907
411.199
411.487
411.77
412.045
412.311
412.565
412.805
413.03
413.239
413.431
413.603
413.756
413.889
414.002
414.093
414.165
414.215
414.246
414.256
414.248
414.225
414.194
419.69
418.921
417.994
417.13
416.439
415.917
415.496
415.114
414.734
414.345
413.951
413.556
413.166
412.782
412.402
412.028
411.66
411.3
410.951
410.616
410.297
409.998
409.719
409.463
409.231
409.023
408.839
408.677
408.535
408.411
408.302
408.207
408.122
408.046
407.975
407.908
407.845
407.782
407.72
407.659
407.596
407.532
407.467
407.401
407.333
407.264
407.193
407.122
407.05
406.977
406.903
406.829
406.755
406.681
406.607
406.534
406.46
406.388
406.316
406.244
406.174
406.104
406.035
405.967
405.901
405.835
405.771
405.708
405.646
405.585
405.526
405.468
405.412
405.357
405.304
405.253
405.203
405.155
405.109
405.064
405.022
404.982
404.944
404.909
404.875
404.844
404.816
404.791
404.768
404.748
404.732
404.718
404.708
404.702
404.699
404.7
404.705
404.715
404.729
404.747
404.771
404.799
404.833
404.873
404.918
404.969
405.027
405.091
405.162
405.241
405.326
405.42
405.521
405.631
405.749
405.876
406.011
406.157
406.311
406.475
406.649
406.833
407.027
407.231
407.445
407.668
407.902
408.145
408.397
408.657
408.926
409.202
409.484
409.772
410.064
410.358
410.655
410.951
411.245
411.534
411.817
412.092
412.356
412.607
412.844
413.065
413.269
413.456
413.625
413.776
413.907
414.019
414.11
414.18
414.23
414.259
414.267
414.255
414.227
414.189
418.386
418.037
417.507
416.895
416.303
415.789
415.356
414.976
414.615
414.254
413.886
413.514
413.142
412.774
412.411
412.055
411.706
411.365
411.035
410.716
410.413
410.125
409.856
409.606
409.377
409.169
408.981
408.813
408.664
408.531
408.412
408.306
408.211
408.124
408.043
407.968
407.896
407.826
407.758
407.69
407.622
407.553
407.485
407.415
407.345
407.274
407.202
407.129
407.056
406.983
406.909
406.834
406.76
406.686
406.612
406.538
406.465
406.392
406.32
406.248
406.178
406.108
406.039
405.971
405.904
405.838
405.774
405.711
405.648
405.588
405.528
405.47
405.414
405.359
405.305
405.253
405.203
405.155
405.108
405.064
405.021
404.981
404.942
404.906
404.872
404.841
404.812
404.786
404.763
404.742
404.725
404.711
404.7
404.693
404.69
404.69
404.694
404.703
404.716
404.734
404.756
404.783
404.816
404.855
404.899
404.949
405.005
405.068
405.138
405.214
405.298
405.39
405.49
405.598
405.714
405.839
405.973
406.116
406.268
406.431
406.603
406.785
406.976
407.179
407.391
407.613
407.845
408.087
408.338
408.598
408.866
409.142
409.425
409.714
410.008
410.306
410.605
410.905
411.204
411.499
411.789
412.071
412.344
412.605
412.852
413.083
413.298
413.493
413.667
413.819
413.948
414.054
414.139
414.204
414.25
414.28
414.291
414.281
414.247
414.193
417.483
417.291
416.958
416.522
416.047
415.591
415.18
414.812
414.469
414.132
413.792
413.446
413.098
412.752
412.409
412.073
411.744
411.422
411.11
410.809
410.52
410.246
409.987
409.745
409.521
409.314
409.126
408.954
408.799
408.659
408.533
408.418
408.313
408.217
408.127
408.043
407.962
407.885
407.809
407.735
407.661
407.588
407.515
407.442
407.368
407.295
407.221
407.146
407.071
406.996
406.921
406.846
406.771
406.696
406.621
406.547
406.473
406.4
406.327
406.255
406.184
406.114
406.045
405.976
405.909
405.843
405.778
405.714
405.652
405.59
405.53
405.472
405.415
405.359
405.305
405.253
405.202
405.153
405.106
405.061
405.017
404.976
404.937
404.9
404.865
404.833
404.803
404.776
404.752
404.73
404.712
404.696
404.684
404.676
404.671
404.669
404.672
404.679
404.69
404.705
404.726
404.751
404.781
404.817
404.859
404.906
404.959
405.019
405.086
405.159
405.239
405.327
405.423
405.527
405.639
405.759
405.888
406.027
406.174
406.331
406.498
406.674
406.861
407.057
407.264
407.48
407.707
407.943
408.189
408.444
408.708
408.98
409.26
409.546
409.838
410.135
410.435
410.736
411.038
411.339
411.635
411.926
412.208
412.481
412.742
412.988
413.217
413.428
413.619
413.789
413.936
414.062
414.164
414.244
414.299
414.329
414.331
414.305
414.255
414.181
416.797
416.672
416.444
416.127
415.755
415.37
414.999
414.654
414.329
414.013
413.697
413.376
413.052
412.728
412.405
412.088
411.777
411.473
411.178
410.892
410.617
410.354
410.105
409.87
409.651
409.447
409.258
409.085
408.927
408.781
408.648
408.526
408.414
408.309
408.211
408.119
408.031
407.946
407.864
407.783
407.704
407.626
407.549
407.472
407.395
407.319
407.242
407.165
407.089
407.012
406.936
406.859
406.783
406.707
406.632
406.557
406.482
406.409
406.335
406.263
406.191
406.121
406.051
405.982
405.914
405.848
405.782
405.718
405.655
405.593
405.532
405.473
405.416
405.359
405.305
405.251
405.2
405.15
405.102
405.056
405.011
404.969
404.929
404.891
404.855
404.821
404.79
404.761
404.735
404.712
404.692
404.675
404.661
404.65
404.643
404.639
404.639
404.643
404.652
404.664
404.682
404.703
404.73
404.762
404.8
404.843
404.892
404.947
405.008
405.076
405.151
405.233
405.323
405.42
405.525
405.638
405.76
405.89
406.029
406.178
406.335
406.502
406.679
406.866
407.062
407.268
407.484
407.709
407.944
408.189
408.442
408.704
408.974
409.251
409.534
409.823
410.117
410.413
410.711
411.01
411.307
411.6
411.888
412.168
412.44
412.699
412.946
413.178
413.393
413.589
413.766
413.921
414.053
414.16
414.241
414.295
414.321
414.315
414.272
414.187
416.249
416.16
415.993
415.755
415.463
415.143
414.818
414.501
414.196
413.9
413.604
413.306
413.004
412.7
412.398
412.098
411.803
411.515
411.235
410.963
410.7
410.448
410.207
409.979
409.764
409.563
409.375
409.201
409.04
408.891
408.752
408.624
408.505
408.394
408.289
408.19
408.095
408.004
407.916
407.83
407.746
407.664
407.582
407.502
407.422
407.343
407.264
407.185
407.106
407.028
406.95
406.873
406.795
406.719
406.642
406.567
406.491
406.417
406.343
406.27
406.198
406.127
406.057
405.987
405.919
405.852
405.786
405.721
405.657
405.595
405.533
405.474
405.415
405.358
405.302
405.248
405.196
405.145
405.096
405.049
405.003
404.959
404.918
404.878
404.841
404.806
404.773
404.743
404.715
404.69
404.667
404.648
404.631
404.618
404.608
404.602
404.599
404.6
404.604
404.613
404.627
404.644
404.667
404.694
404.726
404.764
404.807
404.856
404.912
404.973
405.041
405.115
405.196
405.285
405.381
405.485
405.596
405.716
405.844
405.981
406.127
406.281
406.444
406.617
406.799
406.99
407.191
407.401
407.62
407.848
408.084
408.329
408.582
408.843
409.11
409.384
409.662
409.945
410.231
410.519
410.807
411.094
411.379
411.659
411.934
412.202
412.46
412.707
412.943
413.163
413.368
413.555
413.721
413.866
413.987
414.081
414.146
414.174
414.161
414.103
415.801
415.732
415.604
415.418
415.185
414.919
414.636
414.351
414.069
413.791
413.514
413.235
412.953
412.669
412.384
412.101
411.822
411.548
411.281
411.021
410.769
410.526
410.293
410.072
409.861
409.663
409.477
409.302
409.139
408.987
408.845
408.712
408.587
408.47
408.36
408.255
408.154
408.058
407.965
407.874
407.786
407.699
407.614
407.531
407.448
407.366
407.284
407.203
407.123
407.043
406.964
406.885
406.807
406.729
406.652
406.576
406.5
406.425
406.35
406.277
406.204
406.132
406.062
405.992
405.923
405.855
405.788
405.723
405.658
405.595
405.533
405.472
405.413
405.355
405.299
405.244
405.19
405.138
405.088
405.039
404.993
404.948
404.905
404.864
404.825
404.788
404.753
404.721
404.691
404.663
404.639
404.617
404.598
404.582
404.569
404.559
404.552
404.55
404.551
404.555
404.564
404.577
404.595
404.617
404.643
404.675
404.712
404.754
404.802
404.855
404.915
404.981
405.053
405.132
405.218
405.31
405.411
405.518
405.633
405.757
405.888
406.027
406.175
406.331
406.496
406.669
406.851
407.041
407.24
407.448
407.663
407.886
408.117
408.356
408.601
408.852
409.108
409.37
409.635
409.904
410.174
410.445
410.716
410.986
411.254
411.517
411.776
412.028
412.273
412.508
412.733
412.945
413.142
413.322
413.483
413.621
413.732
413.811
413.853
413.858
415.426
415.372
415.269
415.119
414.928
414.704
414.459
414.204
413.945
413.686
413.426
413.165
412.901
412.634
412.366
412.098
411.834
411.573
411.317
411.068
410.826
410.592
410.367
410.151
409.945
409.75
409.565
409.39
409.226
409.072
408.927
408.79
408.661
408.54
408.424
408.314
408.209
408.108
408.01
407.916
407.823
407.733
407.645
407.558
407.472
407.388
407.304
407.221
407.139
407.058
406.977
406.897
406.818
406.739
406.661
406.584
406.507
406.432
406.357
406.282
406.209
406.137
406.065
405.995
405.925
405.857
405.789
405.723
405.658
405.594
405.531
405.47
405.41
405.351
405.293
405.237
405.183
405.13
405.078
405.028
404.98
404.934
404.889
404.847
404.806
404.767
404.731
404.696
404.664
404.634
404.607
404.582
404.561
404.541
404.525
404.512
404.502
404.495
404.492
404.492
404.497
404.505
404.517
404.533
404.554
404.579
404.609
404.644
404.684
404.729
404.78
404.836
404.899
404.967
405.042
405.123
405.21
405.305
405.406
405.515
405.63
405.754
405.884
406.022
406.168
406.322
406.483
406.652
406.828
407.012
407.204
407.402
407.608
407.82
408.038
408.262
408.492
408.727
408.965
409.207
409.453
409.7
409.949
410.198
410.447
410.696
410.942
411.186
411.427
411.663
411.894
412.117
412.333
412.537
412.729
412.905
413.061
413.195
413.303
413.386
415.11
415.065
414.98
414.856
414.695
414.504
414.29
414.062
413.825
413.585
413.342
413.097
412.848
412.597
412.344
412.091
411.84
411.591
411.346
411.107
410.874
410.648
410.429
410.219
410.017
409.824
409.641
409.467
409.303
409.147
408.999
408.86
408.728
408.602
408.483
408.369
408.259
408.154
408.052
407.954
407.858
407.765
407.673
407.584
407.495
407.409
407.323
407.238
407.154
407.072
406.99
406.908
406.828
406.748
406.669
406.591
406.514
406.437
406.362
406.287
406.213
406.14
406.068
405.997
405.927
405.858
405.789
405.722
405.657
405.592
405.528
405.466
405.405
405.345
405.287
405.23
405.174
405.12
405.067
405.016
404.966
404.918
404.872
404.828
404.785
404.745
404.706
404.669
404.635
404.603
404.573
404.545
404.521
404.498
404.479
404.462
404.448
404.437
404.43
404.426
404.425
404.428
404.434
404.444
404.459
404.477
404.5
404.528
404.56
404.596
404.638
404.685
404.737
404.795
404.858
404.926
405.001
405.082
405.169
405.262
405.362
405.468
405.58
405.7
405.826
405.958
406.098
406.244
406.397
406.556
406.722
406.894
407.072
407.256
407.445
407.64
407.84
408.044
408.252
408.463
408.678
408.896
409.116
409.338
409.561
409.785
410.01
410.235
410.459
410.683
410.906
411.126
411.344
411.558
411.766
411.966
412.158
412.338
412.508
412.668
414.84
414.802
414.73
414.624
414.487
414.321
414.133
413.928
413.712
413.49
413.263
413.032
412.798
412.561
412.321
412.081
411.841
411.604
411.369
411.139
410.914
410.694
410.482
410.276
410.079
409.889
409.707
409.534
409.369
409.213
409.063
408.922
408.787
408.658
408.535
408.418
408.305
408.196
408.091
407.989
407.89
407.794
407.7
407.608
407.517
407.428
407.34
407.254
407.169
407.084
407.001
406.919
406.837
406.756
406.677
406.598
406.52
406.442
406.366
406.29
406.216
406.142
406.069
405.998
405.927
405.857
405.788
405.721
405.654
405.588
405.524
405.461
405.399
405.338
405.279
405.22
405.163
405.108
405.054
405.001
404.95
404.901
404.853
404.807
404.763
404.72
404.679
404.64
404.604
404.569
404.536
404.506
404.478
404.452
404.429
404.409
404.391
404.376
404.364
404.355
404.35
404.347
404.348
404.352
404.36
404.372
404.387
404.407
404.431
404.459
404.491
404.528
404.57
404.616
404.668
404.724
404.785
404.852
404.924
405.002
405.085
405.174
405.268
405.368
405.474
405.585
405.703
405.826
405.954
406.088
406.227
406.372
406.521
406.676
406.835
406.999
407.166
407.338
407.513
407.692
407.874
408.058
408.245
408.434
408.626
408.82
409.015
409.213
409.413
409.615
409.818
410.024
410.231
410.439
410.649
410.859
411.069
411.281
411.495
411.715
414.61
414.578
414.515
414.423
414.302
414.157
413.989
413.804
413.607
413.401
413.188
412.971
412.749
412.525
412.298
412.069
411.84
411.612
411.386
411.164
410.946
410.733
410.526
410.325
410.131
409.944
409.765
409.592
409.427
409.27
409.12
408.976
408.839
408.708
408.582
408.462
408.346
408.234
408.126
408.021
407.92
407.821
407.724
407.629
407.537
407.446
407.356
407.268
407.181
407.096
407.011
406.928
406.845
406.763
406.683
406.603
406.524
406.446
406.369
406.293
406.218
406.143
406.07
405.997
405.926
405.855
405.786
405.718
405.65
405.584
405.519
405.454
405.391
405.33
405.269
405.21
405.152
405.095
405.04
404.986
404.933
404.882
404.832
404.784
404.738
404.694
404.651
404.61
404.57
404.533
404.498
404.464
404.433
404.404
404.378
404.354
404.332
404.313
404.296
404.282
404.271
404.263
404.258
404.257
404.258
404.263
404.271
404.283
404.298
404.317
404.34
404.367
404.398
404.433
404.473
404.516
404.564
404.617
404.674
404.736
404.803
404.874
404.95
405.03
405.116
405.206
405.3
405.399
405.503
405.611
405.724
405.841
405.961
406.086
406.214
406.346
406.481
406.619
406.76
406.904
407.05
407.199
407.351
407.505
407.662
407.821
407.983
408.148
408.317
408.49
408.666
408.848
409.034
409.227
409.425
409.631
409.845
410.069
410.307
410.563
414.414
414.385
414.33
414.248
414.141
414.011
413.86
413.692
413.511
413.319
413.12
412.914
412.704
412.491
412.274
412.055
411.836
411.617
411.399
411.184
410.973
410.766
410.564
410.367
410.176
409.991
409.813
409.642
409.478
409.32
409.168
409.023
408.885
408.751
408.623
408.5
408.382
408.268
408.157
408.05
407.946
407.844
407.746
407.649
407.554
407.462
407.371
407.281
407.193
407.106
407.02
406.936
406.852
406.769
406.688
406.607
406.528
406.449
406.371
406.294
406.218
406.143
406.069
405.996
405.924
405.853
405.783
405.713
405.645
405.578
405.512
405.447
405.383
405.32
405.258
405.198
405.139
405.081
405.024
404.968
404.914
404.862
404.81
404.76
404.712
404.665
404.62
404.577
404.535
404.495
404.457
404.421
404.386
404.354
404.324
404.296
404.27
404.247
404.225
404.207
404.191
404.177
404.166
404.158
404.153
404.15
404.151
404.155
404.162
404.172
404.185
404.202
404.222
404.246
404.273
404.304
404.339
404.378
404.42
404.466
404.515
404.569
404.626
404.687
404.752
404.82
404.892
404.968
405.047
405.129
405.214
405.303
405.394
405.488
405.585
405.684
405.786
405.89
405.996
406.104
406.215
406.327
406.441
406.558
406.677
406.799
406.925
407.054
407.187
407.326
407.47
407.621
407.78
407.948
408.126
408.316
408.52
408.742
408.983
409.25
414.247
414.221
414.171
414.098
414.002
413.883
413.746
413.592
413.424
413.245
413.057
412.863
412.663
412.459
412.252
412.042
411.831
411.619
411.409
411.2
410.995
410.793
410.595
410.401
410.214
410.031
409.855
409.685
409.52
409.362
409.21
409.064
408.924
408.789
408.659
408.534
408.414
408.297
408.184
408.075
407.969
407.866
407.765
407.666
407.57
407.476
407.383
407.292
407.203
407.115
407.028
406.942
406.858
406.774
406.692
406.611
406.53
406.451
406.372
406.295
406.218
406.142
406.068
405.994
405.921
405.849
405.778
405.708
405.639
405.571
405.504
405.438
405.373
405.309
405.246
405.185
405.124
405.065
405.007
404.95
404.894
404.84
404.787
404.735
404.685
404.636
404.588
404.543
404.498
404.456
404.415
404.375
404.338
404.302
404.268
404.236
404.206
404.178
404.152
404.129
404.107
404.088
404.071
404.057
404.045
404.035
404.028
404.024
404.022
404.023
404.027
404.034
404.043
404.056
404.071
404.089
404.11
404.134
404.161
404.191
404.224
404.26
404.298
404.34
404.384
404.43
404.48
404.531
404.585
404.641
404.699
404.76
404.821
404.885
404.95
405.017
405.085
405.154
405.224
405.296
405.368
405.443
405.519
405.596
405.677
405.759
405.846
405.936
406.031
406.132
406.24
406.356
406.482
406.619
406.769
406.935
407.118
407.323
407.552
407.809
414.106
414.083
414.038
413.97
413.882
413.774
413.647
413.504
413.347
413.179
413.002
412.817
412.626
412.43
412.231
412.028
411.824
411.62
411.416
411.213
411.012
410.814
410.62
410.43
410.245
410.065
409.89
409.72
409.557
409.398
409.246
409.099
408.958
408.822
408.69
408.563
408.441
408.323
408.208
408.097
407.989
407.884
407.781
407.681
407.584
407.488
407.394
407.302
407.211
407.122
407.034
406.948
406.862
406.778
406.695
406.613
406.532
406.452
406.372
406.294
406.217
406.141
406.065
405.991
405.917
405.844
405.773
405.702
405.632
405.563
405.495
405.428
405.362
405.297
405.233
405.17
405.109
405.048
404.988
404.93
404.873
404.817
404.762
404.708
404.656
404.605
404.555
404.507
404.46
404.414
404.371
404.328
404.287
404.248
404.21
404.175
404.14
404.108
404.077
404.049
404.022
403.997
403.974
403.953
403.934
403.918
403.903
403.891
403.88
403.872
403.867
403.863
403.862
403.862
403.866
403.871
403.878
403.888
403.9
403.914
403.93
403.948
403.968
403.989
404.012
404.037
404.064
404.091
404.12
404.15
404.181
404.212
404.244
404.277
404.31
404.343
404.377
404.41
404.444
404.478
404.513
404.548
404.584
404.622
404.661
404.703
404.747
404.797
404.851
404.911
404.979
405.057
405.145
405.246
405.363
405.496
405.65
405.827
406.031
406.264
413.99
413.968
413.926
413.864
413.782
413.681
413.563
413.429
413.281
413.122
412.953
412.776
412.593
412.404
412.212
412.016
411.818
411.619
411.42
411.222
411.026
410.832
410.641
410.453
410.27
410.092
409.918
409.75
409.586
409.428
409.276
409.128
408.986
408.849
408.716
408.588
408.464
408.344
408.228
408.115
408.006
407.899
407.795
407.694
407.595
407.498
407.403
407.309
407.218
407.128
407.039
406.951
406.865
406.78
406.696
406.614
406.532
406.451
406.371
406.292
406.215
406.138
406.061
405.986
405.912
405.838
405.766
405.694
405.624
405.554
405.485
405.417
405.35
405.284
405.219
405.155
405.092
405.03
404.969
404.909
404.85
404.792
404.735
404.68
404.626
404.572
404.52
404.47
404.42
404.372
404.325
404.279
404.235
404.193
404.151
404.111
404.073
404.036
404.001
403.967
403.935
403.904
403.875
403.848
403.822
403.798
403.776
403.755
403.736
403.719
403.704
403.69
403.678
403.667
403.658
403.65
403.644
403.64
403.636
403.634
403.633
403.633
403.634
403.636
403.639
403.642
403.645
403.649
403.652
403.656
403.659
403.661
403.664
403.665
403.665
403.665
403.663
403.661
403.658
403.653
403.649
403.643
403.638
403.634
403.63
403.629
403.63
403.635
403.646
403.663
403.688
403.723
403.77
403.831
403.908
404.004
404.121
404.263
404.432
404.631
413.895
413.874
413.835
413.777
413.7
413.605
413.493
413.366
413.226
413.074
412.912
412.742
412.565
412.382
412.195
412.005
411.812
411.618
411.423
411.229
411.036
410.845
410.657
410.472
410.291
410.114
409.941
409.773
409.611
409.453
409.3
409.152
409.009
408.871
408.737
408.608
408.483
408.362
408.244
408.13
408.019
407.912
407.807
407.704
407.604
407.506
407.41
407.315
407.223
407.132
407.042
406.954
406.867
406.782
406.697
406.614
406.531
406.45
406.369
406.29
406.211
406.134
406.057
405.981
405.906
405.832
405.758
405.686
405.614
405.544
405.474
405.405
405.337
405.27
405.204
405.138
405.074
405.011
404.948
404.887
404.826
404.767
404.708
404.651
404.594
404.539
404.484
404.431
404.379
404.328
404.278
404.23
404.182
404.136
404.091
404.047
404.004
403.963
403.922
403.884
403.846
403.81
403.775
403.741
403.708
403.677
403.647
403.618
403.591
403.564
403.539
403.515
403.492
403.47
403.449
403.428
403.408
403.389
403.371
403.353
403.335
403.317
403.299
403.281
403.263
403.244
403.225
403.204
403.182
403.159
403.135
403.108
403.08
403.05
403.017
402.983
402.946
402.906
402.865
402.821
402.776
402.729
402.681
402.633
402.585
402.538
402.493
402.452
402.416
402.386
402.365
402.354
402.355
402.371
402.404
402.457
402.533
402.633
402.76
402.917
413.82
413.801
413.764
413.708
413.635
413.545
413.438
413.317
413.182
413.036
412.879
412.714
412.542
412.364
412.182
411.995
411.807
411.616
411.425
411.234
411.044
410.855
410.669
410.486
410.306
410.131
409.959
409.792
409.629
409.472
409.319
409.17
409.027
408.888
408.753
408.623
408.497
408.375
408.257
408.142
408.03
407.921
407.815
407.711
407.61
407.511
407.414
407.319
407.226
407.134
407.044
406.955
406.868
406.781
406.696
406.612
406.529
406.447
406.366
406.286
406.207
406.129
406.051
405.975
405.899
405.824
405.75
405.677
405.604
405.533
405.462
405.392
405.323
405.255
405.188
405.121
405.055
404.991
404.927
404.864
404.801
404.74
404.68
404.62
404.562
404.504
404.447
404.392
404.337
404.283
404.23
404.178
404.127
404.078
404.029
403.981
403.934
403.888
403.843
403.799
403.756
403.714
403.673
403.633
403.593
403.555
403.517
403.48
403.444
403.408
403.374
403.339
403.305
403.272
403.238
403.205
403.172
403.138
403.105
403.071
403.036
403
402.964
402.926
402.887
402.846
402.803
402.759
402.712
402.662
402.609
402.554
402.495
402.433
402.367
402.297
402.224
402.147
402.066
401.982
401.895
401.805
401.713
401.619
401.524
401.429
401.336
401.246
401.16
401.08
401.008
400.947
400.899
400.865
400.85
400.855
400.882
400.936
401.017
401.126
413.765
413.747
413.711
413.658
413.587
413.5
413.397
413.279
413.149
413.007
412.854
412.693
412.525
412.35
412.171
411.988
411.802
411.614
411.426
411.237
411.049
410.862
410.678
410.496
410.318
410.143
409.972
409.805
409.643
409.485
409.332
409.184
409.04
408.9
408.765
408.635
408.508
408.385
408.266
408.15
408.037
407.928
407.821
407.716
407.615
407.515
407.417
407.322
407.228
407.135
407.044
406.955
406.867
406.78
406.694
406.61
406.526
406.444
406.362
406.281
406.201
406.123
406.045
405.967
405.891
405.815
405.741
405.667
405.593
405.521
405.449
405.378
405.308
405.239
405.17
405.103
405.036
404.97
404.904
404.839
404.776
404.713
404.65
404.589
404.528
404.468
404.409
404.351
404.294
404.237
404.181
404.126
404.072
404.018
403.966
403.914
403.863
403.812
403.762
403.713
403.665
403.617
403.57
403.523
403.477
403.431
403.386
403.341
403.296
403.252
403.207
403.163
403.118
403.073
403.027
402.981
402.935
402.887
402.838
402.788
402.737
402.683
402.628
402.571
402.511
402.448
402.382
402.313
402.241
402.164
402.084
401.999
401.909
401.814
401.715
401.61
401.5
401.384
401.264
401.138
401.007
400.873
400.734
400.592
400.448
400.303
400.159
400.016
399.877
399.743
399.617
399.501
399.398
399.31
399.241
399.193
399.168
399.17
399.2
399.26
413.729
413.711
413.676
413.624
413.555
413.47
413.369
413.254
413.126
412.987
412.837
412.679
412.513
412.341
412.164
411.983
411.799
411.613
411.426
411.239
411.052
410.867
410.683
410.503
410.325
410.15
409.98
409.814
409.651
409.494
409.341
409.192
409.048
408.908
408.773
408.641
408.514
408.391
408.271
408.154
408.041
407.931
407.824
407.719
407.616
407.516
407.418
407.322
407.227
407.134
407.043
406.953
406.865
406.777
406.691
406.606
406.522
406.439
406.357
406.275
406.195
406.116
406.037
405.959
405.882
405.806
405.73
405.655
405.581
405.508
405.436
405.364
405.293
405.222
405.152
405.083
405.015
404.948
404.881
404.815
404.749
404.684
404.62
404.557
404.494
404.432
404.371
404.31
404.25
404.19
404.131
404.073
404.016
403.959
403.902
403.846
403.791
403.736
403.681
403.627
403.573
403.52
403.467
403.414
403.361
403.308
403.255
403.202
403.148
403.095
403.041
402.986
402.93
402.874
402.817
402.758
402.698
402.636
402.572
402.506
402.438
402.367
402.293
402.216
402.136
402.051
401.963
401.869
401.771
401.668
401.559
401.445
401.324
401.197
401.063
400.922
400.774
400.619
400.458
400.289
400.114
399.932
399.745
399.554
399.358
399.16
398.961
398.762
398.565
398.373
398.188
398.013
397.851
397.704
397.575
397.469
397.387
397.333
397.308
397.314
413.711
413.693
413.658
413.607
413.539
413.455
413.355
413.242
413.115
412.977
412.829
412.672
412.507
412.336
412.16
411.98
411.797
411.612
411.426
411.239
411.053
410.869
410.686
410.505
410.328
410.154
409.983
409.817
409.655
409.497
409.344
409.195
409.051
408.911
408.775
408.644
408.516
408.393
408.272
408.156
408.042
407.932
407.824
407.719
407.616
407.515
407.417
407.32
407.225
407.132
407.04
406.95
406.861
406.773
406.687
406.601
406.517
406.433
406.35
406.269
406.188
406.108
406.029
405.95
405.872
405.795
405.719
405.644
405.569
405.495
405.421
405.348
405.276
405.205
405.134
405.064
404.994
404.925
404.857
404.789
404.722
404.655
404.589
404.524
404.459
404.395
404.331
404.268
404.205
404.143
404.081
404.02
403.959
403.898
403.838
403.778
403.718
403.659
403.599
403.54
403.481
403.422
403.363
403.303
403.244
403.184
403.123
403.062
403.001
402.938
402.874
402.81
402.744
402.676
402.607
402.535
402.462
402.386
402.308
402.226
402.141
402.053
401.961
401.864
401.763
401.657
401.545
401.428
401.304
401.174
401.037
400.893
400.74
400.58
400.412
400.234
400.048
399.853
399.649
399.437
399.215
398.986
398.748
398.504
398.254
398
397.742
397.483
397.225
396.97
396.722
396.482
396.254
396.042
395.849
395.679
395.534
395.419
395.335
395.285
413.71
413.693
413.658
413.607
413.539
413.455
413.355
413.241
413.115
412.977
412.828
412.671
412.507
412.336
412.16
411.979
411.796
411.611
411.425
411.239
411.053
410.868
410.685
410.504
410.327
410.153
409.983
409.816
409.654
409.496
409.343
409.194
409.05
408.91
408.774
408.642
408.515
408.391
408.27
408.154
408.04
407.929
407.821
407.716
407.613
407.512
407.413
407.316
407.221
407.128
407.036
406.945
406.856
406.768
406.681
406.595
406.51
406.426
406.343
406.261
406.18
406.099
406.019
405.94
405.862
405.784
405.707
405.631
405.555
405.48
405.406
405.332
405.259
405.186
405.114
405.043
404.972
404.902
404.832
404.763
404.694
404.625
404.558
404.49
404.423
404.357
404.291
404.225
404.16
404.095
404.03
403.965
403.901
403.837
403.773
403.709
403.645
403.582
403.518
403.453
403.389
403.324
403.259
403.193
403.127
403.06
402.992
402.923
402.853
402.782
402.709
402.634
402.558
402.479
402.398
402.314
402.228
402.138
402.045
401.948
401.847
401.741
401.631
401.515
401.393
401.265
401.131
400.99
400.841
400.684
400.518
400.344
400.16
399.967
399.763
399.549
399.324
399.088
398.841
398.582
398.313
398.034
397.744
397.445
397.137
396.823
396.503
396.18
395.856
395.533
395.215
394.905
394.606
394.322
394.058
393.817
393.604
393.422
393.274
393.164
413.728
413.71
413.675
413.623
413.554
413.469
413.368
413.253
413.125
412.986
412.836
412.678
412.512
412.34
412.163
411.981
411.797
411.611
411.424
411.237
411.05
410.865
410.681
410.5
410.322
410.148
409.977
409.811
409.648
409.49
409.337
409.188
409.044
408.904
408.768
408.636
408.509
408.385
408.265
408.148
408.034
407.924
407.816
407.71
407.607
407.507
407.408
407.311
407.216
407.122
407.03
406.939
406.85
406.761
406.674
406.588
406.503
406.418
406.335
406.252
406.17
406.089
406.009
405.929
405.85
405.772
405.694
405.617
405.541
405.465
405.39
405.315
405.241
405.167
405.094
405.021
404.949
404.878
404.806
404.736
404.665
404.595
404.526
404.456
404.387
404.319
404.25
404.182
404.114
404.046
403.979
403.911
403.844
403.776
403.708
403.64
403.572
403.504
403.436
403.367
403.297
403.227
403.156
403.084
403.011
402.937
402.862
402.785
402.707
402.627
402.545
402.46
402.373
402.284
402.191
402.095
401.996
401.893
401.785
401.673
401.555
401.433
401.304
401.169
401.027
400.878
400.721
400.556
400.382
400.198
400.005
399.8
399.585
399.358
399.119
398.867
398.603
398.325
398.033
397.728
397.41
397.078
396.734
396.377
396.009
395.632
395.246
394.854
394.458
394.062
393.668
393.281
392.904
392.542
392.199
391.88
391.591
391.336
391.119
390.944
413.764
413.745
413.709
413.656
413.585
413.498
413.395
413.278
413.147
413.005
412.852
412.691
412.523
412.348
412.169
411.986
411.8
411.612
411.423
411.234
411.046
410.859
410.674
410.492
410.314
410.138
409.967
409.8
409.638
409.479
409.326
409.177
409.033
408.893
408.757
408.626
408.499
408.375
408.255
408.139
408.026
407.915
407.808
407.702
407.6
407.499
407.4
407.303
407.208
407.115
407.022
406.932
406.842
406.753
406.666
406.58
406.494
406.409
406.326
406.243
406.16
406.079
405.998
405.918
405.838
405.759
405.681
405.603
405.526
405.449
405.373
405.298
405.222
405.148
405.073
405
404.926
404.853
404.78
404.708
404.636
404.564
404.493
404.422
404.351
404.28
404.209
404.139
404.068
403.998
403.927
403.856
403.786
403.715
403.643
403.572
403.5
403.427
403.354
403.28
403.205
403.13
403.053
402.975
402.896
402.815
402.733
402.648
402.562
402.473
402.382
402.288
402.191
402.091
401.987
401.879
401.767
401.65
401.529
401.401
401.268
401.129
400.982
400.828
400.667
400.496
400.317
400.128
399.929
399.719
399.497
399.263
399.016
398.755
398.481
398.191
397.887
397.566
397.23
396.877
396.507
396.122
395.72
395.303
394.872
394.427
393.971
393.505
393.033
392.557
392.08
391.608
391.145
390.696
390.266
389.861
389.488
389.151
388.858
388.612
413.818
413.799
413.762
413.706
413.633
413.542