/*--------------------------------*- C++ -*----------------------------------*\
| =========                 |                                                 |
| \\      /  F ield         | OpenFOAM: The Open Source CFD Toolbox           |
|  \\    /   O peration     | Version:  2306                                  |
|   \\  /    A nd           | Website:  www.openfoam.com                      |
|    \\/     M anipulation  |                                                 |
\*---------------------------------------------------------------------------*/
FoamFile
{
    version     2.0;
    format      ascii;
    arch        "LSB;label=32;scalar=64";
    class       surfaceScalarField;
    location    "0.1";
    object      phi;
}
// * * * * * * * * * * * * * * * * * * * * * * * * * * * * * * * * * * * * * //

dimensions      [0 3 -1 0 0 0 0];

oriented        oriented;

internalField   nonuniform List<scalar> 
34640
(
0.0049244
7.55982e-05
0.00478599
0.000138413
0.00463052
0.000155464
0.00447386
0.000156665
0.00431584
0.000158018
0.00415469
0.000161156
0.00399077
0.000163913
0.00382545
0.00016532
0.00366036
0.000165093
0.00349688
0.000163483
0.00333591
0.000160964
0.00317806
0.000157847
0.00302387
0.000154194
0.00287391
0.000149965
0.0027288
0.000145105
0.0025892
0.000139596
0.0024558
0.000133401
0.0023292
0.000126606
0.00220976
0.000119442
0.00209787
0.000111886
0.00199385
0.000104017
0.0018979
9.59477e-05
0.00181011
8.77992e-05
0.0017304
7.97009e-05
0.00165862
7.17802e-05
0.00159447
6.41562e-05
0.00153753
5.69331e-05
0.00148734
5.01959e-05
0.00144333
4.40067e-05
0.00140493
3.8405e-05
0.00137152
3.34073e-05
0.00134251
2.90107e-05
0.00131731
2.51945e-05
0.00129539
2.19259e-05
0.00127623
1.91622e-05
0.00125937
1.68554e-05
0.00124442
1.49506e-05
0.00123104
1.33844e-05
0.00121893
1.21064e-05
0.00120785
1.10761e-05
0.0011976
1.02566e-05
0.00118798
9.61268e-06
0.00117887
9.11171e-06
0.00117015
8.72467e-06
0.00116172
8.42676e-06
0.00115352
8.19737e-06
0.0011455
8.01965e-06
0.00113762
7.88001e-06
0.00112986
7.7676e-06
0.00112218
7.67385e-06
0.00111459
7.59218e-06
0.00110707
7.51761e-06
0.00109963
7.44651e-06
0.00109225
7.37634e-06
0.00108495
7.30542e-06
0.00107771
7.23277e-06
0.00107055
7.15789e-06
0.00106347
7.08071e-06
0.00105647
7.0014e-06
0.00104955
6.92036e-06
0.00104271
6.83811e-06
0.00103596
6.75524e-06
0.00102929
6.67241e-06
0.0010227
6.59027e-06
0.00101619
6.50948e-06
0.00100976
6.4307e-06
0.0010034
6.35452e-06
0.00099712
6.28153e-06
0.000990908
6.21228e-06
0.00098476
6.14729e-06
0.000978673
6.08703e-06
0.000972641
6.03196e-06
0.000966659
5.98251e-06
0.00096072
5.93907e-06
0.000954818
5.90204e-06
0.000948946
5.87179e-06
0.000943097
5.84871e-06
0.000937264
5.83316e-06
0.000931439
5.82553e-06
0.000925613
5.82618e-06
0.000919777
5.83553e-06
0.000913923
5.85398e-06
0.000908041
5.88195e-06
0.000902121
5.9199e-06
0.000896153
5.96831e-06
0.000890125
6.02769e-06
0.000884027
6.09854e-06
0.000877845
6.18143e-06
0.000871568
6.27696e-06
0.000865183
6.38577e-06
0.000858674
6.50855e-06
0.000852028
6.64601e-06
0.000845229
6.79895e-06
0.000838261
6.96819e-06
0.000831106
7.15462e-06
0.000823747
7.35917e-06
0.000816164
7.58283e-06
0.000808338
7.82665e-06
0.000800246
8.09171e-06
0.000791867
8.37916e-06
0.000783177
8.69016e-06
0.000774151
9.02592e-06
0.000764763
9.38771e-06
0.000754986
9.77677e-06
0.000744792
1.01944e-05
0.00073415
1.06419e-05
0.000723029
1.11206e-05
0.000711398
1.16317e-05
0.000699221
1.21763e-05
0.000686466
1.27557e-05
0.000673095
1.33707e-05
0.000659073
1.4022e-05
0.000644362
1.47105e-05
0.000628926
1.54365e-05
0.000612726
1.61998e-05
0.000595726
1.70002e-05
0.000577889
1.78367e-05
0.000559181
1.87079e-05
0.00053957
1.96118e-05
0.000519024
2.05453e-05
0.00049752
2.15046e-05
0.000475035
2.24847e-05
0.000451556
2.34795e-05
0.000427074
2.44811e-05
0.000401594
2.54804e-05
0.000375128
2.64664e-05
0.000347701
2.74263e-05
0.000319356
2.83452e-05
0.00029015
2.92059e-05
0.000260161
2.99892e-05
0.000229487
3.06739e-05
0.00019825
3.12365e-05
0.000166598
3.16526e-05
0.000134701
3.18966e-05
0.000102758
3.1943e-05
7.09898e-05
3.17684e-05
3.96402e-05
3.13497e-05
8.96497e-06
3.06752e-05
-2.07737e-05
2.97387e-05
-4.93315e-05
2.85578e-05
-7.64445e-05
2.71131e-05
-0.000101877
2.54326e-05
-0.000125424
2.35466e-05
-0.000146908
2.14846e-05
-0.000166184
1.92752e-05
-0.000183124
1.69407e-05
-0.000197621
1.4497e-05
-0.000209544
1.19227e-05
-0.000218826
9.28175e-06
-0.000225461
6.63554e-06
-0.000229324
3.86289e-06
-0.000230416
1.0923e-06
-0.000228994
-1.42294e-06
-0.000225399
-3.59412e-06
-0.000219986
-5.41329e-06
-0.000213149
-6.83707e-06
-0.000205651
-7.49781e-06
-0.000198777
-6.87394e-06
-0.000193625
-5.152e-06
-3.23835e-06
-0.000190387
0.00503752
3.8074e-05
0.0050774
9.85323e-05
0.00509715
0.000135716
0.00510103
0.000152788
0.00509796
0.000161087
0.00509065
0.000168467
0.00507782
0.000176742
0.00505836
0.00018478
0.00503222
0.000191238
0.00500005
0.000195646
0.00496275
0.000198271
0.00492104
0.000199555
0.00487546
0.000199767
0.00482644
0.000198994
0.00477432
0.000197217
0.00471952
0.000194395
0.0046624
0.000190522
0.00460335
0.000185663
0.00454287
0.000179919
0.00448139
0.000173365
0.00441932
0.000166091
0.00435705
0.000158219
0.00429496
0.000149891
0.00423339
0.000141263
0.00417268
0.000132495
0.00411309
0.000123743
0.00405488
0.00011515
0.00399823
0.000106844
0.0039433
9.89307e-05
0.00389022
9.14923e-05
0.00383904
8.45846e-05
0.00378981
7.8242e-05
0.00374253
7.24749e-05
0.00369717
6.72783e-05
0.00365371
6.26296e-05
0.00361206
5.85066e-05
0.00357209
5.49159e-05
0.00353377
5.17023e-05
0.00349703
4.88503e-05
0.00346177
4.63381e-05
0.0034279
4.41279e-05
0.00339533
4.21821e-05
0.00336397
4.04646e-05
0.00333376
3.89425e-05
0.0033046
3.75862e-05
0.00327642
3.63699e-05
0.00324917
3.52713e-05
0.00322278
3.42713e-05
0.00319719
3.3354e-05
0.00317236
3.25058e-05
0.00314824
3.17156e-05
0.00312478
3.0974e-05
0.00310196
3.02738e-05
0.00307972
2.96089e-05
0.00305805
2.89747e-05
0.00303692
2.83675e-05
0.00301629
2.77846e-05
0.00299615
2.72237e-05
0.00297647
2.66834e-05
0.00295722
2.61626e-05
0.0029384
2.56604e-05
0.00291998
2.51763e-05
0.00290194
2.471e-05
0.00288427
2.42615e-05
0.00286695
2.38306e-05
0.00284997
2.34175e-05
0.0028333
2.30222e-05
0.00281693
2.26451e-05
0.00280086
2.22863e-05
0.00278506
2.19461e-05
0.00276952
2.16249e-05
0.00275423
2.1323e-05
0.00273917
2.10407e-05
0.00272433
2.07786e-05
0.0027097
2.0537e-05
0.00269525
2.03164e-05
0.00268099
2.01174e-05
0.00266688
1.99406e-05
0.00265292
1.97866e-05
0.00263909
1.96561e-05
0.00262537
1.955e-05
0.00261176
1.9469e-05
0.00259823
1.94142e-05
0.00258476
1.93865e-05
0.00257134
1.9387e-05
0.00255795
1.94171e-05
0.00254457
1.94781e-05
0.00253118
1.95713e-05
0.00251776
1.96983e-05
0.00250429
1.98608e-05
0.00249073
2.00607e-05
0.00247708
2.03e-05
0.0024633
2.05808e-05
0.00244936
2.09054e-05
0.00243524
2.12764e-05
0.0024209
2.16963e-05
0.00240632
2.21682e-05
0.00239145
2.2695e-05
0.00237626
2.32799e-05
0.00236071
2.39265e-05
0.00234476
2.46383e-05
0.00232837
2.54192e-05
0.00231149
2.62731e-05
0.00229406
2.72044e-05
0.00227604
2.82173e-05
0.00225736
2.93166e-05
0.00223797
3.05069e-05
0.00221781
3.17932e-05
0.00219681
3.31805e-05
0.00217489
3.46738e-05
0.00215198
3.6278e-05
0.00212801
3.79983e-05
0.00210288
3.98397e-05
0.00207651
4.1807e-05
0.0020488
4.39046e-05
0.00201967
4.61365e-05
0.001989
4.85062e-05
0.00195669
5.10169e-05
0.00192263
5.36706e-05
0.00188671
5.64683e-05
0.0018488
5.94099e-05
0.00180879
6.24933e-05
0.00176656
6.57148e-05
0.00172197
6.90682e-05
0.00167491
7.25446e-05
0.00162524
7.61322e-05
0.00157285
7.98156e-05
0.00151762
8.35749e-05
0.00145944
8.73858e-05
0.00139821
9.1218e-05
0.00133385
9.50357e-05
0.00126629
9.87958e-05
0.00119549
0.000102448
0.00112146
0.000105935
0.00104421
0.000109189
0.000963841
0.000112137
0.000880499
0.000114692
0.000794406
0.000116767
0.000705894
0.000118251
0.000615406
0.000119046
0.000523493
0.000119026
0.00043086
0.000118066
0.000338362
0.000116045
0.000246998
0.000112849
0.000157882
0.000108391
7.21957e-05
0.000102627
-8.89331e-06
9.5586e-05
-8.43853e-05
8.74147e-05
-0.000153366
7.82626e-05
-0.000215169
6.84385e-05
-0.000269547
5.82405e-05
-0.000316472
4.8018e-05
-0.000355957
3.80614e-05
-0.000388221
2.86697e-05
-0.000413793
2.01591e-05
-0.000432931
1.23007e-05
-0.000446962
6.53351e-06
-0.000457466
3.62997e-06
-0.000466249
3.63119e-06
3.61771e-06
-0.000473105
0.00501445
2.36261e-05
0.00504447
6.85058e-05
0.00507419
0.000106005
0.0050986
0.000128379
0.00511782
0.000141865
0.00513505
0.000151239
0.00515198
0.000159808
0.00516821
0.000168552
0.00518275
0.000176695
0.00519496
0.000183439
0.0052047
0.000188532
0.00521214
0.000192112
0.00521747
0.000194442
0.00522074
0.000195722
0.00522192
0.000196032
0.00522095
0.000195364
0.00521777
0.000193704
0.00521238
0.000191058
0.00520484
0.000187453
0.00519523
0.000182982
0.0051836
0.000177716
0.00517007
0.000171752
0.00515475
0.00016521
0.00513779
0.000158222
0.00511935
0.000150932
0.00509961
0.00014348
0.00507876
0.000136004
0.00505697
0.000128631
0.00503443
0.000121471
0.00501131
0.000114616
0.00498776
0.000108137
0.00496392
0.000102082
0.00493991
9.64834e-05
0.00491583
9.13531e-05
0.00489177
8.66908e-05
0.00486779
8.24856e-05
0.004844
7.87113e-05
0.00482038
7.53137e-05
0.00479698
7.22573e-05
0.0047738
6.9517e-05
0.00475086
6.70652e-05
0.00472817
6.48716e-05
0.00470573
6.2905e-05
0.00468354
6.11353e-05
0.00466159
5.95351e-05
0.00463988
5.80797e-05
0.0046184
5.67475e-05
0.00459716
5.55198e-05
0.00457613
5.43804e-05
0.00455532
5.33157e-05
0.00453472
5.23142e-05
0.00451433
5.13661e-05
0.00449414
5.04637e-05
0.00447415
4.96005e-05
0.00445435
4.87715e-05
0.00443475
4.79726e-05
0.00441533
4.72007e-05
0.0043961
4.64536e-05
0.00437705
4.57294e-05
0.00435819
4.50269e-05
0.0043395
4.43454e-05
0.004321
4.36844e-05
0.00430266
4.30436e-05
0.0042845
4.24231e-05
0.00426651
4.18229e-05
0.00424868
4.12435e-05
0.00423102
4.06852e-05
0.00421352
4.01484e-05
0.00419617
3.96339e-05
0.00417897
3.91422e-05
0.00416192
3.86739e-05
0.00414502
3.82299e-05
0.00412825
3.7811e-05
0.00411161
3.74179e-05
0.00409509
3.70517e-05
0.0040787
3.67133e-05
0.00406241
3.64038e-05
0.00404623
3.61243e-05
0.00403014
3.5876e-05
0.00401413
3.56605e-05
0.0039982
3.5479e-05
0.00398234
3.53331e-05
0.00396653
3.52245e-05
0.00395076
3.51551e-05
0.00393502
3.51268e-05
0.0039193
3.51419e-05
0.00390357
3.52026e-05
0.00388783
3.53113e-05
0.00387206
3.54708e-05
0.00385624
3.5684e-05
0.00384034
3.59539e-05
0.00382436
3.6284e-05
0.00380826
3.6678e-05
0.00379203
3.71397e-05
0.00377563
3.76734e-05
0.00375904
3.82836e-05
0.00374224
3.89752e-05
0.00372518
3.97534e-05
0.00370783
4.06238e-05
0.00369017
4.15921e-05
0.00367214
4.26646e-05
0.00365371
4.3848e-05
0.00363484
4.51493e-05
0.00361546
4.65759e-05
0.00359555
4.81356e-05
0.00357503
4.98368e-05
0.00355385
5.16878e-05
0.00353194
5.36979e-05
0.00350924
5.58766e-05
0.00348569
5.82331e-05
0.00346119
6.07776e-05
0.00343566
6.35207e-05
0.00340903
6.64727e-05
0.00338119
6.96442e-05
0.00335205
7.30459e-05
0.0033215
7.66884e-05
0.00328942
8.05821e-05
0.0032557
8.47371e-05
0.00322021
8.91633e-05
0.00318281
9.38694e-05
0.00314336
9.88634e-05
0.0031017
0.000104152
0.00305767
0.000109739
0.00301111
0.000115629
0.00296184
0.00012182
0.00290966
0.000128311
0.00285438
0.000135094
0.0027958
0.000142159
0.00273369
0.000149489
0.00266785
0.00015706
0.00259804
0.000164844
0.00252404
0.000172801
0.0024456
0.000180883
0.00236251
0.00018903
0.00227453
0.000197169
0.00218145
0.000205217
0.00208307
0.000213068
0.00197923
0.000220606
0.0018698
0.000227686
0.00175469
0.000234153
0.0016339
0.000239821
0.00150748
0.000244479
0.00137563
0.000247899
0.00123865
0.00024983
0.00109703
0.000250013
0.000951473
0.000248181
0.000802983
0.000244075
0.000652944
0.000237454
0.000503114
0.000228093
0.000355714
0.000215839
0.000213335
0.000200619
7.88335e-05
0.00018252
-4.49987e-05
0.000161894
-0.000155785
0.000139456
-0.000251981
0.000116355
-0.00033387
9.419e-05
-0.000402311
7.49738e-05
-0.000459036
6.03556e-05
-0.000506267
5.08617e-05
4.31634e-05
-0.000545812
0.00500634
1.7287e-05
0.00502385
5.09946e-05
0.00504705
8.28065e-05
0.0050694
0.000106032
0.00508909
0.000122172
0.00510687
0.000133459
0.00512445
0.000142226
0.00514267
0.000150335
0.00516111
0.000158251
0.00517929
0.000165263
0.00519686
0.000170956
0.00521373
0.000175249
0.0052299
0.000178263
0.00524543
0.0001802
0.00526025
0.000181214
0.00527426
0.000181348
0.00528735
0.000180612
0.0052994
0.000179008
0.0053103
0.000176555
0.00531997
0.000173311
0.00532834
0.000169344
0.00533536
0.000164735
0.00534099
0.000159578
0.00534523
0.000153982
0.0053481
0.000148062
0.00534965
0.000141934
0.00534994
0.000135717
0.00534905
0.000129517
0.00534709
0.000123434
0.00534415
0.000117551
0.00534035
0.000111937
0.00533579
0.000106643
0.00533057
0.000101704
0.00532478
9.71405e-05
0.00531851
9.29586e-05
0.00531185
8.91514e-05
0.00530486
8.57018e-05
0.00529758
8.25884e-05
0.00529006
7.97836e-05
0.00528231
7.72615e-05
0.00527438
7.49981e-05
0.00526628
7.29691e-05
0.00525804
7.11491e-05
0.00524966
6.95131e-05
0.00524116
6.80372e-05
0.00523254
6.66994e-05
0.00522381
6.548e-05
0.00521496
6.43617e-05
0.00520602
6.33291e-05
0.00519696
6.23694e-05
0.0051878
6.14714e-05
0.00517855
6.06257e-05
0.00516918
5.98243e-05
0.00515972
5.90608e-05
0.00515017
5.83299e-05
0.00514051
5.76274e-05
0.00513076
5.69501e-05
0.00512092
5.62953e-05
0.00511099
5.56612e-05
0.00510097
5.50465e-05
0.00509086
5.44503e-05
0.00508068
5.3872e-05
0.00507041
5.33114e-05
0.00506006
5.27687e-05
0.00504964
5.2244e-05
0.00503915
5.17379e-05
0.00502858
5.12508e-05
0.00501795
5.07836e-05
0.00500724
5.0337e-05
0.00499647
4.99119e-05
0.00498564
4.95094e-05
0.00497474
4.91306e-05
0.00496377
4.87765e-05
0.00495274
4.84486e-05
0.00494165
4.81482e-05
0.00493048
4.78766e-05
0.00491925
4.76355e-05
0.00490795
4.74266e-05
0.00489657
4.72516e-05
0.00488512
4.71125e-05
0.00487359
4.70113e-05
0.00486197
4.69502e-05
0.00485026
4.69317e-05
0.00483846
4.69583e-05
0.00482655
4.70329e-05
0.00481454
4.71584e-05
0.0048024
4.73379e-05
0.00479014
4.75749e-05
0.00477774
4.78731e-05
0.00476518
4.82364e-05
0.00475247
4.86692e-05
0.00473958
4.91759e-05
0.00472649
4.97615e-05
0.0047132
5.04314e-05
0.00469968
5.11913e-05
0.00468592
5.20474e-05
0.00467189
5.30062e-05
0.00465757
5.40747e-05
0.00464293
5.52603e-05
0.00462795
5.65711e-05
0.0046126
5.80156e-05
0.00459685
5.96027e-05
0.00458065
6.1342e-05
0.00456399
6.32438e-05
0.0045468
6.53187e-05
0.00452906
6.75782e-05
0.00451072
7.00342e-05
0.00449171
7.26992e-05
0.004472
7.55869e-05
0.00445153
7.87105e-05
0.00443022
8.20844e-05
0.00440802
8.57245e-05
0.00438484
8.96458e-05
0.00436062
9.38643e-05
0.00433527
9.83966e-05
0.0043087
0.000103259
0.00428081
0.00010847
0.0042515
0.000114046
0.00422066
0.000120004
0.00418817
0.000126362
0.0041539
0.000133136
0.00411771
0.000140342
0.00407945
0.000147996
0.00403897
0.00015611
0.00399609
0.000164696
0.00395064
0.000173765
0.00390241
0.000183321
0.0038512
0.000193369
0.00379679
0.000203905
0.00373892
0.000214923
0.00367736
0.000226408
0.00361182
0.000238338
0.00354202
0.000250681
0.00346766
0.000263394
0.00338841
0.000276421
0.00330393
0.000289692
0.00321389
0.000303116
0.0031179
0.000316589
0.00301561
0.000329975
0.00290665
0.000343119
0.00279063
0.000355836
0.00266721
0.000367905
0.00253603
0.000379075
0.0023968
0.000389056
0.0022493
0.000397521
0.00209336
0.000404119
0.00192897
0.000408468
0.00175626
0.000410159
0.00157559
0.000408764
0.00138757
0.000403856
0.00119317
0.000395022
0.000993792
0.000381898
0.000791491
0.000364194
0.000589234
0.000341714
0.000391134
0.000314455
0.000202495
0.000282829
2.93937e-05
0.000248075
-0.00012278
0.00021253
-0.000250793
0.000178875
0.000148362
-0.000355991
0.00500365
1.36361e-05
0.00501435
4.02976e-05
0.00503119
6.59665e-05
0.00504935
8.78717e-05
0.00506703
0.000104492
0.00508364
0.000116852
0.00509962
0.00012624
0.00511582
0.000134131
0.00513258
0.000141493
0.00514968
0.000148167
0.00516678
0.000153853
0.0051837
0.000158334
0.00520035
0.000161613
0.00521672
0.000163825
0.00523282
0.000165111
0.00524861
0.00016556
0.00526401
0.000165215
0.00527892
0.000164098
0.00529324
0.000162237
0.00530688
0.000159673
0.00531975
0.000156466
0.0053318
0.000152688
0.00534296
0.00014842
0.00535319
0.000143752
0.00536247
0.00013878
0.0053708
0.000133602
0.00537821
0.000128316
0.00538471
0.000123012
0.00539037
0.000117776
0.00539524
0.000112681
0.00539939
0.000107788
0.00540289
0.000103144
0.00540581
9.87844e-05
0.00540822
9.47302e-05
0.00541018
9.09911e-05
0.00541177
8.7566e-05
0.00541302
8.44474e-05
0.00541399
8.16236e-05
0.0054147
7.90758e-05
0.00541518
7.67827e-05
0.00541545
7.4723e-05
0.00541554
7.28761e-05
0.00541547
7.12213e-05
0.00541525
6.97379e-05
0.00541488
6.84059e-05
0.00541437
6.72062e-05
0.00541373
6.61213e-05
0.00541296
6.51353e-05
0.00541205
6.42346e-05
0.00541101
6.34068e-05
0.00540984
6.26414e-05
0.00540854
6.19296e-05
0.0054071
6.12635e-05
0.00540552
6.06368e-05
0.00540381
6.00441e-05
0.00540196
5.94812e-05
0.00539996
5.89445e-05
0.00539783
5.84312e-05
0.00539555
5.79394e-05
0.00539313
5.74674e-05
0.00539056
5.70143e-05
0.00538786
5.65793e-05
0.00538501
5.6162e-05
0.00538201
5.57626e-05
0.00537887
5.5381e-05
0.00537559
5.50179e-05
0.00537217
5.46736e-05
0.00536861
5.43491e-05
0.0053649
5.40451e-05
0.00536105
5.37627e-05
0.00535705
5.3503e-05
0.00535292
5.32673e-05
0.00534864
5.30569e-05
0.00534421
5.28733e-05
0.00533964
5.27181e-05
0.00533493
5.2593e-05
0.00533006
5.24999e-05
0.00532505
5.24407e-05
0.00531988
5.24177e-05
0.00531456
5.2433e-05
0.00530908
5.24893e-05
0.00530344
5.25891e-05
0.00529764
5.27354e-05
0.00529167
5.29311e-05
0.00528552
5.31798e-05
0.00527919
5.34848e-05
0.00527268
5.38501e-05
0.00526598
5.42796e-05
0.00525907
5.47779e-05
0.00525196
5.53495e-05
0.00524463
5.59997e-05
0.00523707
5.67338e-05
0.00522928
5.75579e-05
0.00522123
5.84781e-05
0.00521292
5.95014e-05
0.00520433
6.0635e-05
0.00519545
6.18867e-05
0.00518626
6.32649e-05
0.00517674
6.47784e-05
0.00516688
6.64367e-05
0.00515664
6.825e-05
0.00514602
7.02291e-05
0.00513497
7.23853e-05
0.00512349
7.4731e-05
0.00511153
7.7279e-05
0.00509906
8.00431e-05
0.00508606
8.30378e-05
0.00507248
8.62781e-05
0.00505828
8.97807e-05
0.00504343
9.3562e-05
0.00502788
9.76397e-05
0.00501157
0.000102033
0.00499445
0.000106762
0.00497647
0.000111846
0.00495756
0.000117307
0.00493765
0.000123165
0.00491668
0.000129444
0.00489456
0.000136168
0.0048712
0.000143359
0.00484652
0.000151042
0.00482042
0.000159241
0.00479278
0.00016798
0.00476349
0.000177283
0.00473243
0.000187174
0.00469945
0.000197675
0.00466441
0.000208806
0.00462714
0.000220588
0.00458747
0.000233036
0.00454522
0.000246164
0.00450016
0.00025998
0.00445208
0.000274488
0.00440073
0.000289685
0.00434585
0.00030556
0.00428715
0.000322094
0.00422432
0.000339253
0.00415702
0.000356994
0.00408488
0.000375254
0.00400751
0.000393954
0.0039245
0.000412993
0.00383537
0.000432241
0.00373966
0.000451547
0.00363685
0.00047072
0.00352639
0.000489536
0.00340771
0.000507729
0.00328024
0.000524996
0.00314337
0.000540989
0.00299652
0.00055532
0.00283912
0.000567557
0.00267066
0.000577222
0.00249072
0.000583799
0.00229901
0.000586727
0.00209551
0.000585398
0.00188048
0.000579225
0.00165458
0.000567621
0.00141896
0.000550067
0.00117558
0.000526216
0.000927662
0.00049599
0.000680582
0.000459609
0.000442019
0.000417438
0.000370085
0.000220296
0.00500249
1.11463e-05
0.00500982
3.29659e-05
0.00502171
5.40804e-05
0.00503621
7.33657e-05
0.00505142
8.92827e-05
0.00506649
0.000101789
0.00508115
0.000111578
0.00509575
0.000119529
0.00511077
0.000126473
0.00512622
0.000132718
0.00514192
0.000138153
0.00515766
0.000142596
0.00517329
0.000145985
0.00518875
0.000148366
0.00520402
0.000149837
0.00521909
0.000150494
0.0052339
0.000150404
0.00524838
0.000149613
0.00526247
0.000148154
0.00527607
0.000146068
0.00528913
0.000143408
0.00530158
0.000140235
0.00531338
0.000136621
0.00532449
0.000132643
0.00533489
0.000128383
0.00534456
0.000123926
0.00535353
0.000119352
0.0053618
0.000114742
0.00536941
0.000110166
0.0053764
0.00010569
0.00538282
0.000101366
0.00538872
9.72396e-05
0.00539417
9.33419e-05
0.0053992
8.9695e-05
0.00540388
8.63109e-05
0.00540825
8.31936e-05
0.00541236
8.03409e-05
0.00541624
7.77456e-05
0.00541992
7.53954e-05
0.00542343
7.32739e-05
0.00542679
7.13636e-05
0.00543002
6.9647e-05
0.00543313
6.8107e-05
0.00543614
6.67266e-05
0.00543906
6.54888e-05
0.00544189
6.43775e-05
0.00544463
6.33774e-05
0.00544729
6.24744e-05
0.00544987
6.16561e-05
0.00545237
6.09113e-05
0.00545478
6.02304e-05
0.0054571
5.96048e-05
0.00545934
5.90272e-05
0.00546148
5.84916e-05
0.00546354
5.79927e-05
0.00546549
5.75262e-05
0.00546735
5.70886e-05
0.0054691
5.6677e-05
0.00547075
5.62893e-05
0.00547229
5.59239e-05
0.00547373
5.55795e-05
0.00547505
5.52553e-05
0.00547626
5.49509e-05
0.00547736
5.46662e-05
0.00547834
5.44013e-05
0.0054792
5.41566e-05
0.00547994
5.39325e-05
0.00548056
5.37298e-05
0.00548106
5.35494e-05
0.00548143
5.33924e-05
0.00548167
5.32599e-05
0.00548179
5.31533e-05
0.00548177
5.30739e-05
0.00548162
5.30235e-05
0.00548133
5.30037e-05
0.00548091
5.30164e-05
0.00548035
5.30637e-05
0.00547964
5.31477e-05
0.00547879
5.32708e-05
0.00547778
5.34355e-05
0.00547663
5.36446e-05
0.00547532
5.39011e-05
0.00547384
5.42081e-05
0.00547221
5.4569e-05
0.0054704
5.49876e-05
0.00546841
5.54677e-05
0.00546625
5.60135e-05
0.0054639
5.66298e-05
0.00546136
5.73212e-05
0.00545861
5.8093e-05
0.00545566
5.8951e-05
0.0054525
5.9901e-05
0.0054491
6.09498e-05
0.00544548
6.21042e-05
0.00544161
6.33718e-05
0.00543748
6.47607e-05
0.00543309
6.62795e-05
0.00542842
6.79373e-05
0.00542345
6.97441e-05
0.00541818
7.17103e-05
0.00541258
7.38471e-05
0.00540664
7.61665e-05
0.00540035
7.86813e-05
0.00539367
8.14049e-05
0.0053866
8.43516e-05
0.00537911
8.75369e-05
0.00537117
9.0977e-05
0.00536276
9.46886e-05
0.00535385
9.86904e-05
0.00534441
0.000103001
0.00533441
0.00010764
0.00532381
0.00011263
0.00531258
0.000117993
0.00530067
0.000123752
0.00528805
0.00012993
0.00527466
0.000136554
0.00526045
0.000143651
0.00524538
0.000151246
0.00522937
0.000159369
0.00521236
0.000168049
0.00519428
0.000177316
0.00517506
0.0001872
0.00515462
0.000197732
0.00513285
0.000208942
0.00510966
0.000220862
0.00508494
0.000233522
0.00505858
0.000246952
0.00503044
0.000261178
0.00500037
0.000276228
0.00496823
0.000292124
0.00493383
0.000308885
0.00489699
0.000326527
0.00485749
0.000345057
0.00481511
0.000364478
0.00476958
0.000384782
0.00472063
0.00040595
0.00466793
0.000427951
0.00461115
0.000450737
0.0045499
0.000474244
0.00448375
0.000498382
0.00441226
0.000523041
0.0043349
0.000548079
0.00425112
0.000573321
0.00416029
0.000598556
0.00406175
0.000623536
0.00395477
0.000647967
0.00383858
0.000671512
0.00371235
0.000693783
0.00357524
0.000714339
0.00342636
0.000732676
0.00326486
0.000748229
0.00308989
0.000760368
0.00290069
0.000768421
0.00269663
0.000771678
0.0024773
0.000769403
0.00224266
0.000760856
0.00199344
0.000745212
0.00173135
0.000721692
0.00145939
0.000689397
0.000647445
0.00118203
0.00500185
9.29757e-06
0.00500728
2.7532e-05
0.00501604
4.53208e-05
0.00502756
6.1852e-05
0.00504039
7.64486e-05
0.00505373
8.84484e-05
0.00506713
9.81818e-05
0.00508053
0.000106126
0.00509418
0.000112826
0.00510821
0.000118681
0.00512258
0.000123786
0.00513712
0.00012806
0.00515166
0.000131435
0.00516613
0.000133901
0.00518046
0.00013551
0.00519461
0.000136339
0.00520855
0.000136461
0.00522223
0.000135934
0.00523558
0.000134803
0.00524854
0.000133108
0.00526105
0.000130898
0.00527306
0.000128226
0.00528453
0.000125155
0.00529542
0.000121751
0.00530572
0.000118086
0.00531541
0.00011423
0.00532451
0.000110256
0.00533302
0.000106229
0.00534097
0.000102213
0.0053484
9.82632e-05
0.00535534
9.44281e-05
0.00536183
9.07466e-05
0.00536793
8.72492e-05
0.00537366
8.39574e-05
0.00537909
8.0885e-05
0.00538424
7.80389e-05
0.00538916
7.54203e-05
0.00539388
7.30253e-05
0.00539843
7.08459e-05
0.00540284
6.887e-05
0.00540712
6.7084e-05
0.00541129
6.54736e-05
0.00541537
6.40247e-05
0.00541938
6.27229e-05
0.00542331
6.15543e-05
0.00542718
6.05052e-05
0.005431
5.95624e-05
0.00543476
5.87136e-05
0.00543847
5.79477e-05
0.00544212
5.72547e-05
0.00544573
5.66257e-05
0.00544928
5.60529e-05
0.00545278
5.55295e-05
0.00545622
5.50499e-05
0.0054596
5.4609e-05
0.00546293
5.42026e-05
0.00546619
5.38275e-05
0.00546939
5.34808e-05
0.00547251
5.31603e-05
0.00547557
5.28644e-05
0.00547856
5.25919e-05
0.00548148
5.23419e-05
0.00548431
5.21139e-05
0.00548707
5.19079e-05
0.00548975
5.17238e-05
0.00549234
5.1562e-05
0.00549485
5.1423e-05
0.00549727
5.13077e-05
0.00549961
5.12169e-05
0.00550185
5.11516e-05
0.00550399
5.11131e-05
0.00550605
5.11029e-05
0.005508
5.11224e-05
0.00550985
5.11733e-05
0.00551159
5.12574e-05
0.00551323
5.13769e-05
0.00551476
5.15337e-05
0.00551618
5.17304e-05
0.00551748
5.19693e-05
0.00551866
5.22533e-05
0.00551972
5.25853e-05
0.00552066
5.29684e-05
0.00552146
5.34061e-05
0.00552212
5.39019e-05
0.00552265
5.44599e-05
0.00552304
5.50842e-05
0.00552327
5.57794e-05
0.00552335
5.65503e-05
0.00552327
5.74021e-05
0.00552302
5.83405e-05
0.0055226
5.93714e-05
0.005522
6.05013e-05
0.00552121
6.17372e-05
0.00552023
6.30865e-05
0.00551905
6.45572e-05
0.00551765
6.61579e-05
0.00551603
6.78976e-05
0.00551418
6.97863e-05
0.00551209
7.18342e-05
0.00550975
7.40526e-05
0.00550714
7.64534e-05
0.00550426
7.90492e-05
0.00550109
8.18535e-05
0.00549761
8.48808e-05
0.00549382
8.81462e-05
0.00548969
9.1666e-05
0.00548521
9.54576e-05
0.00548036
9.95387e-05
0.00547512
0.000103929
0.00546947
0.000108649
0.00546339
0.00011372
0.00545686
0.000119165
0.00544984
0.000125008
0.00544232
0.000131274
0.00543426
0.000137989
0.00542564
0.00014518
0.00541641
0.000152878
0.00540654
0.000161111
0.005396
0.000169911
0.00538474
0.000179311
0.00537271
0.000189344
0.00535987
0.000200044
0.00534615
0.000211448
0.0053315
0.00022359
0.00531586
0.000236508
0.00529914
0.000250238
0.00528128
0.000264817
0.00526217
0.000280281
0.00524174
0.000296666
0.00521986
0.000314005
0.00519641
0.000332329
0.00517127
0.000351667
0.00514429
0.000372043
0.00511529
0.000393477
0.00508409
0.00041598
0.00505048
0.000439558
0.00501423
0.000464205
0.00497506
0.000489902
0.00493269
0.000516619
0.00488676
0.000544307
0.00483691
0.000572895
0.00478269
0.000602291
0.00472364
0.000632377
0.00465919
0.000663001
0.00458875
0.000693981
0.00451162
0.000725095
0.00442705
0.000756078
0.00433422
0.000786618
0.00423221
0.000816351
0.00412004
0.000844845
0.00399666
0.00087161
0.00386094
0.00089608
0.00371175
0.00091762
0.0035479
0.000935524
0.00336831
0.000948995
0.00317202
0.000957143
0.00295832
0.000958914
0.00272684
0.000953174
0.00247771
0.000938522
0.000913358
0.0022118
0.00500144
7.85846e-06
0.00500568
2.32949e-05
0.00501255
3.8442e-05
0.00502174
5.26628e-05
0.00503257
6.56224e-05
0.00504425
7.67647e-05
0.00505636
8.60752e-05
0.00506868
9.38023e-05
0.00508124
0.000100274
0.00509411
0.000105806
0.00510732
0.000110579
0.00512076
0.000114618
0.00513431
0.000117882
0.00514786
0.00012035
0.00516133
0.000122039
0.00517467
0.000123001
0.00518783
0.000123301
0.00520077
0.000122998
0.00521343
0.000122143
0.00522576
0.00012078
0.0052377
0.000118954
0.00524922
0.000116713
0.00526026
0.00011411
0.00527081
0.000111203
0.00528084
0.000108054
0.00529035
0.000104723
0.00529933
0.000101273
0.0053078
9.77605e-05
0.00531577
9.42404e-05
0.00532327
9.07615e-05
0.00533033
8.73661e-05
0.00533699
8.40895e-05
0.00534328
8.096e-05
0.00534924
7.79985e-05
0.00535491
7.52196e-05
0.00536031
7.26318e-05
0.00536549
7.02383e-05
0.00537048
6.8038e-05
0.0053753
6.60257e-05
0.00537998
6.41931e-05
0.00538453
6.25299e-05
0.00538898
6.10248e-05
0.00539334
5.96662e-05
0.00539762
5.84423e-05
0.00540183
5.73413e-05
0.00540599
5.63517e-05
0.00541009
5.54624e-05
0.00541414
5.46626e-05
0.00541814
5.39426e-05
0.0054221
5.32935e-05
0.00542602
5.27072e-05
0.0054299
5.21768e-05
0.00543373
5.1696e-05
0.00543752
5.12595e-05
0.00544127
5.08627e-05
0.00544497
5.05017e-05
0.00544862
5.01734e-05
0.00545223
4.9875e-05
0.00545579
4.96046e-05
0.00545929
4.93604e-05
0.00546274
4.91414e-05
0.00546614
4.89467e-05
0.00546947
4.87758e-05
0.00547275
4.86286e-05
0.00547597
4.85053e-05
0.00547913
4.84061e-05
0.00548222
4.83316e-05
0.00548524
4.82826e-05
0.0054882
4.82601e-05
0.00549109
4.82651e-05
0.0054939
4.8299e-05
0.00549664
4.83632e-05
0.0054993
4.84594e-05
0.00550189
4.85893e-05
0.00550439
4.87549e-05
0.00550681
4.89583e-05
0.00550914
4.92017e-05
0.00551138
4.94877e-05
0.00551353
4.9819e-05
0.00551559
5.01983e-05
0.00551755
5.06289e-05
0.0055194
5.1114e-05
0.00552115
5.16573e-05
0.00552279
5.22625e-05
0.00552431
5.29338e-05
0.00552572
5.36757e-05
0.00552701
5.44929e-05
0.00552817
5.53904e-05
0.0055292
5.63738e-05
0.00553009
5.7449e-05
0.00553084
5.86221e-05
0.00553144
5.99e-05
0.00553189
6.129e-05
0.00553217
6.27997e-05
0.00553229
6.44375e-05
0.00553224
6.62123e-05
0.005532
6.81336e-05
0.00553158
7.02114e-05
0.00553096
7.24567e-05
0.00553013
7.48811e-05
0.00552908
7.74967e-05
0.00552782
8.03168e-05
0.00552631
8.33553e-05
0.00552457
8.66272e-05
0.00552257
9.01482e-05
0.0055203
9.3935e-05
0.00551775
9.80057e-05
0.00551491
0.000102379
0.00551176
0.000107075
0.0055083
0.000112114
0.0055045
0.00011752
0.00550035
0.000123315
0.00549583
0.000129525
0.00549093
0.000136176
0.00548562
0.000143295
0.00547989
0.000150911
0.00547372
0.000159054
0.00546707
0.000167756
0.00545993
0.00017705
0.00545227
0.00018697
0.00544407
0.000197552
0.00543528
0.000208833
0.00542588
0.00022085
0.00541582
0.000233644
0.00540508
0.000247253
0.0053936
0.000261719
0.00538133
0.000277083
0.00536822
0.000293386
0.00535422
0.00031067
0.00533925
0.000328975
0.00532324
0.00034834
0.0053061
0.000368804
0.00528775
0.000390401
0.00526806
0.000413163
0.00524692
0.000437118
0.00522419
0.000462287
0.00519971
0.000488683
0.0051733
0.000516314
0.00514475
0.000545174
0.00511381
0.000575245
0.00508021
0.000606494
0.00504363
0.000638871
0.0050037
0.000672305
0.00496
0.000706701
0.00491205
0.000741938
0.00485928
0.000777862
0.00480107
0.000814286
0.00473671