/*--------------------------------*- C++ -*----------------------------------*\
| =========                 |                                                 |
| \\      /  F ield         | OpenFOAM: The Open Source CFD Toolbox           |
|  \\    /   O peration     | Version:  2306                                  |
|   \\  /    A nd           | Website:  www.openfoam.com                      |
|    \\/     M anipulation  |                                                 |
\*---------------------------------------------------------------------------*/
FoamFile
{
    version     2.0;
    format      ascii;
    arch        "LSB;label=32;scalar=64";
    class       volVectorField;
    location    "0.1";
    object      U;
}
// * * * * * * * * * * * * * * * * * * * * * * * * * * * * * * * * * * * * * //

dimensions      [0 1 -1 0 0 0 0];

internalField   nonuniform List<vector> 
17600
(
(9.80708 0.0850065 0)
(9.62283 0.180499 0)
(9.41197 0.217947 0)
(9.1463 0.225575 0)
(8.83441 0.225095 0)
(8.49839 0.225378 0)
(8.15621 0.226728 0)
(7.81678 0.227119 0)
(7.48278 0.225207 0)
(7.15426 0.220803 0)
(6.83081 0.21443 0)
(6.51261 0.206731 0)
(6.20048 0.198134 0)
(5.89578 0.188822 0)
(5.59999 0.178812 0)
(5.31465 0.168089 0)
(5.04107 0.156651 0)
(4.78068 0.144561 0)
(4.53438 0.131836 0)
(4.30295 0.118565 0)
(4.08707 0.104929 0)
(3.8872 0.0911856 0)
(3.70363 0.0776274 0)
(3.53639 0.0645483 0)
(3.38523 0.0522176 0)
(3.24967 0.040861 0)
(3.12897 0.0306479 0)
(3.02222 0.0216841 0)
(2.92838 0.0140119 0)
(2.8463 0.00761666 0)
(2.77479 0.00243766 0)
(2.71263 -0.00161943 0)
(2.65865 -0.00466874 0)
(2.61172 -0.00683505 0)
(2.57079 -0.0082412 0)
(2.5349 -0.00900909 0)
(2.50321 -0.00924806 0)
(2.47496 -0.00908736 0)
(2.44955 -0.00864794 0)
(2.42643 -0.00802405 0)
(2.40515 -0.00728517 0)
(2.38532 -0.00648275 0)
(2.36664 -0.00565533 0)
(2.34883 -0.0048315 0)
(2.33171 -0.00403191 0)
(2.3151 -0.00327098 0)
(2.2989 -0.00255832 0)
(2.28302 -0.00189987 0)
(2.26738 -0.00129878 0)
(2.25195 -0.000755981 0)
(2.23669 -0.000270655 0)
(2.22158 0.000159366 0)
(2.20662 0.00053724 0)
(2.1918 0.000866789 0)
(2.17713 0.00115222 0)
(2.16259 0.00139789 0)
(2.1482 0.00160818 0)
(2.13396 0.00178729 0)
(2.11988 0.00193926 0)
(2.10596 0.00206782 0)
(2.09221 0.00217644 0)
(2.07861 0.00226825 0)
(2.06519 0.00234612 0)
(2.05193 0.00241258 0)
(2.03883 0.0024699 0)
(2.02589 0.00252008 0)
(2.01311 0.0025649 0)
(2.00047 0.00260591 0)
(1.98798 0.00264446 0)
(1.97562 0.00268175 0)
(1.96339 0.00271881 0)
(1.95128 0.00275657 0)
(1.93926 0.00279583 0)
(1.92734 0.00283731 0)
(1.91551 0.00288164 0)
(1.90373 0.0029294 0)
(1.89202 0.00298113 0)
(1.88034 0.00303731 0)
(1.86868 0.00309843 0)
(1.85703 0.00316491 0)
(1.84538 0.00323718 0)
(1.83369 0.00331565 0)
(1.82196 0.00340072 0)
(1.81016 0.00349279 0)
(1.79827 0.00359228 0)
(1.78628 0.00369959 0)
(1.77416 0.00381508 0)
(1.76189 0.00393916 0)
(1.74943 0.00407225 0)
(1.73677 0.00421484 0)
(1.72389 0.0043674 0)
(1.71074 0.00453042 0)
(1.6973 0.00470441 0)
(1.68354 0.00488994 0)
(1.66942 0.00508757 0)
(1.65492 0.00529791 0)
(1.63998 0.00552161 0)
(1.62458 0.00575931 0)
(1.60867 0.00601167 0)
(1.59221 0.00627931 0)
(1.57515 0.00656283 0)
(1.55744 0.00686278 0)
(1.53904 0.00717969 0)
(1.51989 0.00751402 0)
(1.49993 0.00786615 0)
(1.47911 0.00823638 0)
(1.45736 0.00862486 0)
(1.43462 0.00903157 0)
(1.41083 0.00945647 0)
(1.38591 0.00989907 0)
(1.35981 0.0103584 0)
(1.33243 0.0108337 0)
(1.30372 0.0113236 0)
(1.27359 0.0118258 0)
(1.24197 0.0123379 0)
(1.20879 0.0128565 0)
(1.17398 0.0133775 0)
(1.13745 0.0138962 0)
(1.09916 0.0144064 0)
(1.05902 0.0149012 0)
(1.01699 0.0153721 0)
(0.973018 0.0158091 0)
(0.927071 0.0162008 0)
(0.879125 0.0165338 0)
(0.829176 0.0167931 0)
(0.777237 0.0169619 0)
(0.723348 0.0170219 0)
(0.667575 0.0169532 0)
(0.610015 0.0167346 0)
(0.550803 0.0163445 0)
(0.490115 0.0157615 0)
(0.42817 0.0149653 0)
(0.365235 0.0139392 0)
(0.301628 0.0126715 0)
(0.237719 0.0111583 0)
(0.173924 0.00940696 0)
(0.110709 0.00743787 0)
(0.0485409 0.00529284 0)
(-0.012049 0.00306266 0)
(-0.0704509 0.000865212 0)
(-0.126134 -0.00127125 0)
(-0.178748 -0.0031778 0)
(-0.227811 -0.00471274 0)
(-0.272928 -0.00576496 0)
(-0.313776 -0.00627488 0)
(-0.350085 -0.00627357 0)
(-0.381628 -0.00591498 0)
(-0.408156 -0.00553689 0)
(-0.429461 -0.00539924 0)
(-0.445468 -0.00584989 0)
(-0.45601 -0.00694138 0)
(-0.460937 -0.00862204 0)
(-0.460539 -0.0106838 0)
(-0.455433 -0.012606 0)
(-0.446318 -0.0139057 0)
(-0.433922 -0.0144208 0)
(-0.419387 -0.0137805 0)
(-0.404804 -0.0117328 0)
(-0.392722 -0.00805181 0)
(-0.384683 -0.00383745 0)
(10.0008 0.122278 0)
(10.0676 0.272133 0)
(10.1383 0.342314 0)
(10.1915 0.367543 0)
(10.2161 0.377229 0)
(10.2123 0.385751 0)
(10.1866 0.395761 0)
(10.1458 0.405193 0)
(10.094 0.411936 0)
(10.0331 0.415238 0)
(9.96343 0.415414 0)
(9.88507 0.413154 0)
(9.79827 0.409007 0)
(9.70368 0.403252 0)
(9.60213 0.395933 0)
(9.49466 0.387005 0)
(9.38216 0.376401 0)
(9.26568 0.364112 0)
(9.14595 0.350155 0)
(9.02384 0.334629 0)
(8.90017 0.317718 0)
(8.77577 0.299673 0)
(8.65141 0.28079 0)
(8.52781 0.261389 0)
(8.40562 0.241797 0)
(8.28543 0.222337 0)
(8.16771 0.203308 0)
(8.05292 0.184978 0)
(7.94138 0.167571 0)
(7.83338 0.15126 0)
(7.72909 0.136167 0)
(7.62864 0.122365 0)
(7.53206 0.109876 0)
(7.43937 0.0986884 0)
(7.35047 0.0887517 0)
(7.26529 0.0799997 0)
(7.18362 0.0723421 0)
(7.10533 0.0656986 0)
(7.03025 0.0599892 0)
(6.95822 0.055125 0)
(6.88908 0.0510091 0)
(6.82264 0.0475415 0)
(6.75872 0.0446251 0)
(6.69717 0.0421707 0)
(6.63781 0.0400995 0)
(6.5805 0.0383434 0)
(6.5251 0.0368447 0)
(6.47148 0.0355552 0)
(6.41953 0.0344346 0)
(6.36913 0.0334497 0)
(6.3202 0.0325731 0)
(6.27265 0.0317829 0)
(6.22638 0.0310613 0)
(6.18134 0.0303944 0)
(6.13746 0.0297714 0)
(6.09467 0.029184 0)
(6.05293 0.028626 0)
(6.01217 0.0280927 0)
(5.97236 0.027581 0)
(5.93345 0.0270885 0)
(5.8954 0.026614 0)
(5.85817 0.0261566 0)
(5.82172 0.025716 0)
(5.78602 0.0252923 0)
(5.75104 0.0248858 0)
(5.71674 0.0244971 0)
(5.68309 0.0241266 0)
(5.65007 0.0237752 0)
(5.61764 0.0234437 0)
(5.58577 0.0231329 0)
(5.55444 0.0228436 0)
(5.52362 0.0225767 0)
(5.49328 0.0223331 0)
(5.46338 0.0221137 0)
(5.43392 0.0219194 0)
(5.40484 0.0217513 0)
(5.37614 0.0216102 0)
(5.34777 0.0214972 0)
(5.3197 0.0214134 0)
(5.29192 0.02136 0)
(5.26438 0.0213383 0)
(5.23706 0.0213495 0)
(5.20992 0.0213951 0)
(5.18293 0.0214765 0)
(5.15605 0.0215955 0)
(5.12925 0.0217537 0)
(5.10249 0.021953 0)
(5.07573 0.0221954 0)
(5.04892 0.022483 0)
(5.02204 0.0228182 0)
(4.99502 0.0232034 0)
(4.96782 0.0236412 0)
(4.9404 0.0241346 0)
(4.91269 0.0246865 0)
(4.88465 0.0253002 0)
(4.8562 0.0259792 0)
(4.82729 0.0267272 0)
(4.79785 0.027548 0)
(4.76781 0.0284458 0)
(4.7371 0.0294249 0)
(4.70562 0.0304899 0)
(4.6733 0.0316454 0)
(4.64004 0.0328966 0)
(4.60575 0.0342484 0)
(4.57033 0.0357063 0)
(4.53365 0.0372756 0)
(4.49562 0.0389619 0)
(4.4561 0.0407707 0)
(4.41497 0.0427075 0)
(4.37208 0.0447779 0)
(4.3273 0.0469867 0)
(4.28045 0.0493387 0)
(4.23139 0.0518388 0)
(4.17994 0.0544909 0)
(4.12591 0.0572978 0)
(4.06912 0.0602617 0)
(4.00937 0.0633834 0)
(3.94645 0.0666622 0)
(3.88014 0.0700953 0)
(3.81023 0.0736779 0)
(3.73647 0.0774024 0)
(3.65863 0.081258 0)
(3.57646 0.0852303 0)
(3.48971 0.0893002 0)
(3.39814 0.0934438 0)
(3.3015 0.097631 0)
(3.19953 0.101825 0)
(3.092 0.105983 0)
(2.97867 0.110051 0)
(2.85934 0.113968 0)
(2.73383 0.117663 0)
(2.60198 0.121053 0)
(2.46368 0.124049 0)
(2.31889 0.126547 0)
(2.16763 0.128437 0)
(2.01001 0.129603 0)
(1.84627 0.129917 0)
(1.67676 0.129275 0)
(1.50205 0.127531 0)
(1.32282 0.124644 0)
(1.14013 0.120475 0)
(0.955215 0.114954 0)
(0.769606 0.108053 0)
(0.585164 0.0997795 0)
(0.404024 0.0902006 0)
(0.228524 0.0794663 0)
(0.0609748 0.0678426 0)
(-0.0962489 0.0557126 0)
(-0.24109 0.0435599 0)
(-0.372072 0.0319398 0)
(-0.488285 0.0214933 0)
(-0.589514 0.0126423 0)
(-0.675836 0.00535958 0)
(-0.747531 -0.000828002 0)
(-0.805331 -0.00654828 0)
(-0.849797 -0.0117862 0)
(-0.882526 -0.0158691 0)
(-0.906702 -0.0169811 0)
(-0.926154 -0.0142255 0)
(-0.942695 -0.0105125 0)
(10.0003 0.0614102 0)
(10.0359 0.160317 0)
(10.0898 0.227812 0)
(10.1516 0.268435 0)
(10.2101 0.293264 0)
(10.2592 0.312124 0)
(10.2981 0.329979 0)
(10.3293 0.347438 0)
(10.3557 0.363316 0)
(10.379 0.376513 0)
(10.3994 0.386631 0)
(10.4166 0.393848 0)
(10.4299 0.398549 0)
(10.4389 0.401042 0)
(10.4435 0.401469 0)
(10.4436 0.39984 0)
(10.4393 0.396115 0)
(10.4306 0.39027 0)
(10.4176 0.382368 0)
(10.4004 0.372538 0)
(10.3792 0.360966 0)
(10.3541 0.347884 0)
(10.3253 0.333563 0)
(10.2931 0.3183 0)
(10.2578 0.302406 0)
(10.2198 0.286196 0)
(10.1792 0.269971 0)
(10.1366 0.254008 0)
(10.0923 0.238547 0)
(10.0466 0.223784 0)
(9.99989 0.209864 0)
(9.95243 0.19689 0)
(9.90448 0.184913 0)
(9.8563 0.173948 0)
(9.80806 0.163976 0)
(9.75995 0.154956 0)
(9.71206 0.14683 0)
(9.66452 0.139541 0)
(9.61741 0.133036 0)
(9.57078 0.127247 0)
(9.52463 0.122102 0)
(9.47897 0.117521 0)
(9.43382 0.113427 0)
(9.38917 0.109748 0)
(9.34501 0.106418 0)
(9.30134 0.103384 0)
(9.25814 0.100598 0)
(9.21541 0.0980218 0)
(9.17313 0.0956215 0)
(9.1313 0.0933705 0)
(9.08989 0.0912463 0)
(9.04891 0.0892307 0)
(9.00833 0.0873088 0)
(8.96815 0.0854687 0)
(8.92836 0.0837012 0)
(8.88897 0.0819987 0)
(8.84995 0.0803559 0)
(8.81131 0.0787684 0)
(8.77304 0.0772331 0)
(8.73513 0.0757478 0)
(8.69758 0.074311 0)
(8.66039 0.0729217 0)
(8.62355 0.0715793 0)
(8.58706 0.0702836 0)
(8.55091 0.0690347 0)
(8.51509 0.0678329 0)
(8.47961 0.0666785 0)
(8.44444 0.0655722 0)
(8.40959 0.0645145 0)
(8.37505 0.0635061 0)
(8.34081 0.062548 0)
(8.30685 0.061641 0)
(8.27318 0.060786 0)
(8.23977 0.0599842 0)
(8.20662 0.0592367 0)
(8.17371 0.0585448 0)
(8.14103 0.0579099 0)
(8.10856 0.0573335 0)
(8.07629 0.0568174 0)
(8.0442 0.0563634 0)
(8.01227 0.0559736 0)
(7.98048 0.0556503 0)
(7.94881 0.0553961 0)
(7.91724 0.0552139 0)
(7.88574 0.0551066 0)
(7.85428 0.0550776 0)
(7.82283 0.0551305 0)
(7.79138 0.0552692 0)
(7.75987 0.0554981 0)
(7.72828 0.0558218 0)
(7.69657 0.0562454 0)
(7.66471 0.0567742 0)
(7.63263 0.0574142 0)
(7.60031 0.0581718 0)
(7.56769 0.0590537 0)
(7.53472 0.0600672 0)
(7.50134 0.0612202 0)
(7.46749 0.0625211 0)
(7.4331 0.0639788 0)
(7.39811 0.0656028 0)
(7.36243 0.0674032 0)
(7.32599 0.0693907 0)
(7.28871 0.0715767 0)
(7.25048 0.0739731 0)
(7.21122 0.0765925 0)
(7.17081 0.0794484 0)
(7.12913 0.0825541 0)
(7.08608 0.0859246 0)
(7.04151 0.0895748 0)
(6.99529 0.0935194 0)
(6.94727 0.0977746 0)
(6.89729 0.102357 0)
(6.84518 0.107281 0)
(6.79076 0.112566 0)
(6.73383 0.118225 0)
(6.67419 0.124275 0)
(6.61163 0.130731 0)
(6.5459 0.137607 0)
(6.47675 0.144916 0)
(6.40394 0.152668 0)
(6.32716 0.160873 0)
(6.24614 0.169535 0)
(6.16055 0.178658 0)
(6.07007 0.18824 0)
(5.97434 0.198272 0)
(5.87301 0.20874 0)
(5.76567 0.219621 0)
(5.65194 0.230883 0)
(5.53139 0.242483 0)
(5.4036 0.254364 0)
(5.2681 0.266455 0)
(5.12444 0.278666 0)
(4.97216 0.290889 0)
(4.8108 0.302994 0)
(4.63989 0.314824 0)
(4.45899 0.326198 0)
(4.2677 0.336897 0)
(4.06561 0.346682 0)
(3.85246 0.355255 0)
(3.62799 0.362294 0)
(3.3921 0.367415 0)
(3.14486 0.370194 0)
(2.88649 0.370164 0)
(2.61745 0.36682 0)
(2.33854 0.359663 0)
(2.05094 0.348233 0)
(1.75629 0.332198 0)
(1.45693 0.311478 0)
(1.15596 0.286141 0)
(0.857363 0.256678 0)
(0.56603 0.223755 0)
(0.287509 0.188385 0)
(0.0276306 0.151964 0)
(-0.208129 0.116308 0)
(-0.415493 0.0838867 0)
(-0.592975 0.0579128 0)
(-0.742215 0.0408058 0)
(-0.866563 0.0329803 0)
(-0.970656 0.0307405 0)
(-1.05825 0.0268536 0)
(10.0002 0.0417785 0)
(10.0198 0.117268 0)
(10.0537 0.178902 0)
(10.0983 0.224482 0)
(10.1468 0.256543 0)
(10.1935 0.280014 0)
(10.2356 0.299267 0)
(10.2733 0.316634 0)
(10.3083 0.332498 0)
(10.3423 0.346355 0)
(10.3761 0.357717 0)
(10.4097 0.366445 0)
(10.4429 0.372697 0)
(10.475 0.376726 0)
(10.5056 0.378729 0)
(10.5346 0.378805 0)
(10.5618 0.376991 0)
(10.5869 0.373316 0)
(10.6098 0.367845 0)
(10.6304 0.360685 0)
(10.6485 0.351984 0)
(10.664 0.341922 0)
(10.6767 0.330712 0)
(10.6867 0.31859 0)
(10.694 0.305804 0)
(10.6985 0.292607 0)
(10.7004 0.279247 0)
(10.6999 0.265954 0)
(10.6971 0.252933 0)
(10.6922 0.240358 0)
(10.6854 0.228369 0)
(10.677 0.217068 0)
(10.6672 0.206526 0)
(10.6561 0.196779 0)
(10.644 0.187843 0)
(10.6309 0.179705 0)
(10.6172 0.172342 0)
(10.6028 0.165707 0)
(10.5879 0.159738 0)
(10.5726 0.154374 0)
(10.5569 0.149554 0)
(10.5408 0.145217 0)
(10.5245 0.141308 0)
(10.5078 0.137772 0)
(10.4909 0.134563 0)
(10.4738 0.131634 0)
(10.4564 0.128948 0)
(10.4388 0.12647 0)
(10.421 0.124169 0)
(10.403 0.12202 0)
(10.3848 0.120001 0)
(10.3664 0.118091 0)
(10.3477 0.116276 0)
(10.3289 0.114543 0)
(10.3099 0.112879 0)
(10.2907 0.111278 0)
(10.2713 0.109731 0)
(10.2517 0.108233 0)
(10.2319 0.106781 0)
(10.212 0.105372 0)
(10.1919 0.104003 0)
(10.1716 0.102672 0)
(10.1511 0.101381 0)
(10.1305 0.100127 0)
(10.1097 0.0989125 0)
(10.0888 0.0977368 0)
(10.0677 0.0966012 0)
(10.0465 0.0955069 0)
(10.0252 0.0944551 0)
(10.0037 0.0934476 0)
(9.98213 0.0924859 0)
(9.96039 0.0915719 0)
(9.93853 0.0907076 0)
(9.91653 0.0898953 0)
(9.8944 0.0891372 0)
(9.87214 0.0884358 0)
(9.84975 0.0877937 0)
(9.82721 0.0872138 0)
(9.80454 0.0866992 0)
(9.78171 0.0862531 0)
(9.75872 0.0858792 0)
(9.73558 0.0855812 0)
(9.71225 0.0853633 0)
(9.68874 0.0852301 0)
(9.66504 0.0851862 0)
(9.64112 0.0852371 0)
(9.61697 0.0853882 0)
(9.59257 0.0856459 0)
(9.56791 0.0860166 0)
(9.54296 0.0865076 0)
(9.5177 0.0871264 0)
(9.49209 0.0878813 0)
(9.46612 0.0887812 0)
(9.43976 0.0898355 0)
(9.41295 0.0910543 0)
(9.38568 0.0924485 0)
(9.35789 0.0940296 0)
(9.32955 0.0958101 0)
(9.3006 0.0978031 0)
(9.271 0.100023 0)
(9.24068 0.102484 0)
(9.20959 0.105202 0)
(9.17766 0.108195 0)
(9.14481 0.111479 0)
(9.11098 0.115075 0)
(9.07608 0.119001 0)
(9.04001 0.12328 0)
(9.00269 0.127932 0)
(8.964 0.132981 0)
(8.92384 0.138451 0)
(8.88209 0.144366 0)
(8.83861 0.150754 0)
(8.79327 0.15764 0)
(8.74592 0.165052 0)
(8.69639 0.173018 0)
(8.64452 0.181567 0)
(8.59011 0.190727 0)
(8.53297 0.200526 0)
(8.47288 0.210993 0)
(8.40961 0.222156 0)
(8.34292 0.23404 0)
(8.27254 0.24667 0)
(8.19818 0.260068 0)
(8.11954 0.274253 0)
(8.03628 0.289239 0)
(7.94807 0.305035 0)
(7.85451 0.321643 0)
(7.7552 0.339056 0)
(7.64972 0.357258 0)
(7.53759 0.37622 0)
(7.41833 0.3959 0)
(7.29141 0.416238 0)
(7.15626 0.437154 0)
(7.01231 0.458546 0)
(6.85891 0.480286 0)
(6.69541 0.502214 0)
(6.52112 0.524133 0)
(6.33533 0.545814 0)
(6.13731 0.56697 0)
(5.9263 0.587273 0)
(5.70154 0.606339 0)
(5.46232 0.623714 0)
(5.20791 0.638894 0)
(4.93768 0.651313 0)
(4.65105 0.660351 0)
(4.34766 0.665324 0)
(4.02727 0.665514 0)
(3.68998 0.660148 0)
(3.33626 0.648381 0)
(2.96703 0.629339 0)
(2.58391 0.602142 0)
(2.18926 0.566025 0)
(1.78646 0.520572 0)
(1.3803 0.466064 0)
(0.977624 0.404017 0)
(0.587872 0.337547 0)
(0.222721 0.272255 0)
(-0.105525 0.215064 0)
(-0.387155 0.171013 0)
(-0.619541 0.138849 0)
(10.0001 0.0316594 0)
(10.0128 0.0917311 0)
(10.036 0.14502 0)
(10.0682 0.188674 0)
(10.1059 0.22225 0)
(10.1451 0.247678 0)
(10.183 0.267763 0)
(10.2184 0.284808 0)
(10.2518 0.29991 0)
(10.2843 0.3132 0)
(10.3169 0.324421 0)
(10.3499 0.333362 0)
(10.3831 0.340006 0)
(10.4163 0.34449 0)
(10.4491 0.346992 0)
(10.4812 0.347662 0)
(10.5125 0.346602 0)
(10.5429 0.34389 0)
(10.5721 0.339604 0)
(10.6001 0.333845 0)
(10.6266 0.32674 0)
(10.6516 0.318445 0)
(10.6749 0.309136 0)
(10.6964 0.299009 0)
(10.7161 0.288273 0)
(10.7338 0.277137 0)
(10.7497 0.265809 0)
(10.7636 0.25448 0)
(10.7758 0.243327 0)
(10.7864 0.232501 0)
(10.7954 0.222125 0)
(10.803 0.212297 0)
(10.8094 0.203085 0)
(10.8147 0.194533 0)
(10.819 0.186661 0)
(10.8225 0.179468 0)
(10.8252 0.172937 0)
(10.8274 0.167033 0)
(10.829 0.161709 0)
(10.8301 0.156917 0)
(10.8308 0.152607 0)
(10.8312 0.148734 0)
(10.8312 0.145254 0)
(10.8308 0.142124 0)
(10.8302 0.139305 0)
(10.8293 0.136756 0)
(10.8282 0.134443 0)
(10.8267 0.132334 0)
(10.8251 0.1304 0)
(10.8231 0.128615 0)
(10.8209 0.126958 0)
(10.8184 0.12541 0)
(10.8157 0.123954 0)
(10.8127 0.122578 0)
(10.8094 0.121269 0)
(10.8058 0.12002 0)
(10.802 0.118822 0)
(10.7978 0.11767 0)
(10.7934 0.116559 0)
(10.7887 0.115487 0)
(10.7837 0.114451 0)
(10.7785 0.113449 0)
(10.7729 0.112482 0)
(10.7671 0.111548 0)
(10.7609 0.110648 0)
(10.7545 0.109782 0)
(10.7478 0.108953 0)
(10.7408 0.108161 0)
(10.7336 0.107408 0)
(10.726 0.106696 0)
(10.7182 0.106027 0)
(10.71 0.105403 0)
(10.7016 0.104828 0)
(10.6929 0.104303 0)
(10.6839 0.103832 0)
(10.6746 0.103418 0)
(10.665 0.103064 0)
(10.6552 0.102775 0)
(10.645 0.102553 0)
(10.6345 0.102404 0)
(10.6237 0.102331 0)
(10.6126 0.10234 0)
(10.6011 0.102436 0)
(10.5894 0.102624 0)
(10.5772 0.10291 0)
(10.5648 0.103302 0)
(10.5519 0.103807 0)
(10.5387 0.104431 0)
(10.5251 0.105183 0)
(10.5111 0.106073 0)
(10.4967 0.10711 0)
(10.4818 0.108304 0)
(10.4664 0.109665 0)
(10.4506 0.111207 0)
(10.4342 0.112942 0)
(10.4173 0.114882 0)
(10.3999 0.117043 0)
(10.3818 0.119441 0)
(10.3631 0.12209 0)
(10.3437 0.12501 0)
(10.3236 0.128219 0)
(10.3028 0.131737 0)
(10.2811 0.135584 0)
(10.2586 0.139784 0)
(10.2352 0.14436 0)
(10.2108 0.149338 0)
(10.1853 0.154744 0)
(10.1588 0.160606 0)
(10.131 0.166954 0)
(10.102 0.173819 0)
(10.0716 0.181232 0)
(10.0397 0.189229 0)
(10.0063 0.197845 0)
(9.97128 0.207116 0)
(9.93442 0.217081 0)
(9.89564 0.227778 0)
(9.8548 0.239247 0)
(9.81175 0.251531 0)
(9.76632 0.264669 0)
(9.71834 0.278705 0)
(9.66761 0.29368 0)
(9.61393 0.309635 0)
(9.55707 0.32661 0)
(9.4968 0.344644 0)
(9.43284 0.363771 0)
(9.36491 0.384023 0)
(9.2927 0.405428 0)
(9.21588 0.428006 0)
(9.13408 0.451771 0)
(9.0469 0.476727 0)
(8.95391 0.502865 0)
(8.85464 0.530163 0)
(8.74859 0.558583 0)
(8.6352 0.588066 0)
(8.51388 0.618528 0)
(8.38396 0.649861 0)
(8.24477 0.681917 0)
(8.09552 0.714518 0)
(7.93541 0.747438 0)
(7.76356 0.7804 0)
(7.57903 0.813074 0)
(7.38081 0.845064 0)
(7.16785 0.875907 0)
(6.93903 0.905066 0)
(6.69319 0.93193 0)
(6.42915 0.95579 0)
(6.1457 0.975851 0)
(5.84169 0.991221 0)
(5.51603 1.00091 0)
(5.16778 1.00384 0)
(4.79622 0.998886 0)
(4.40101 0.984915 0)
(3.98231 0.960837 0)
(3.54092 0.925652 0)
(3.07857 0.878499 0)
(2.5983 0.818744 0)
(2.10513 0.746351 0)
(1.60696 0.662658 0)
(1.11611 0.571078 0)
(0.649566 0.476783 0)
(10.0001 0.0253288 0)
(10.0092 0.0742813 0)
(10.0261 0.11942 0)
(10.0502 0.15856 0)
(10.0797 0.190658 0)
(10.1121 0.216145 0)
(10.1452 0.236473 0)
(10.1773 0.253285 0)
(10.2084 0.267764 0)
(10.2387 0.280408 0)
(10.2689 0.291223 0)
(10.2993 0.300062 0)
(10.3302 0.30684 0)
(10.3612 0.311595 0)
(10.3922 0.314457 0)
(10.4228 0.315577 0)
(10.4528 0.315093 0)
(10.4822 0.31311 0)
(10.5108 0.309724 0)
(10.5384 0.305032 0)
(10.5651 0.299146 0)
(10.5907 0.292199 0)
(10.615 0.284344 0)
(10.6381 0.275748 0)
(10.6597 0.266586 0)
(10.6798 0.257038 0)
(10.6986 0.247279 0)
(10.7159 0.237475 0)
(10.7318 0.227779 0)
(10.7464 0.218321 0)
(10.7598 0.209215 0)
(10.7722 0.200548 0)
(10.7835 0.192386 0)
(10.7939 0.184772 0)
(10.8036 0.17773 0)
(10.8126 0.171265 0)
(10.821 0.165366 0)
(10.8289 0.160009 0)
(10.8364 0.155162 0)
(10.8436 0.150788 0)
(10.8504 0.146851 0)
(10.857 0.143313 0)
(10.8633 0.140139 0)
(10.8694 0.137293 0)
(10.8753 0.134739 0)
(10.881 0.132445 0)
(10.8866 0.130379 0)
(10.892 0.12851 0)
(10.8972 0.126813 0)
(10.9023 0.125265 0)
(10.9072 0.123844 0)
(10.9119 0.122533 0)
(10.9165 0.121317 0)
(10.9209 0.120182 0)
(10.925 0.119119 0)
(10.9291 0.118117 0)
(10.9329 0.117171 0)
(10.9365 0.116274 0)
(10.9399 0.115422 0)
(10.9431 0.114611 0)
(10.9461 0.11384 0)
(10.9488 0.113105 0)
(10.9514 0.112408 0)
(10.9537 0.111747 0)
(10.9557 0.111123 0)
(10.9576 0.110536 0)
(10.9592 0.109988 0)
(10.9606 0.109479 0)
(10.9617 0.109013 0)
(10.9625 0.10859 0)
(10.9631 0.108213 0)
(10.9635 0.107885 0)
(10.9636 0.107609 0)
(10.9634 0.107387 0)
(10.963 0.107222 0)
(10.9623 0.10712 0)
(10.9613 0.107082 0)
(10.96 0.107114 0)
(10.9585 0.107219 0)
(10.9566 0.107404 0)
(10.9545 0.107672 0)
(10.952 0.108029 0)
(10.9492 0.108482 0)
(10.9461 0.109037 0)
(10.9427 0.1097 0)
(10.9389 0.11048 0)
(10.9347 0.111384 0)
(10.9302 0.112422 0)
(10.9253 0.113602 0)
(10.92 0.114935 0)
(10.9143 0.116431 0)
(10.9082 0.118102 0)
(10.9017 0.119961 0)
(10.8947 0.122021 0)
(10.8872 0.124297 0)
(10.8792 0.126803 0)
(10.8707 0.129556 0)
(10.8616 0.132574 0)
(10.852 0.135875 0)
(10.8417 0.13948 0)
(10.8309 0.14341 0)
(10.8193 0.147687 0)
(10.8071 0.152336 0)
(10.7941 0.157382 0)
(10.7804 0.162854 0)
(10.7659 0.168779 0)
(10.7504 0.175189 0)
(10.7341 0.182115 0)
(10.7168 0.189594 0)
(10.6984 0.19766 0)
(10.679 0.20635 0)
(10.6584 0.215707 0)
(10.6366 0.225771 0)
(10.6135 0.236587 0)
(10.589 0.248198 0)
(10.563 0.260654 0)
(10.5355 0.274003 0)
(10.5062 0.288297 0)
(10.4751 0.303587 0)
(10.4422 0.319926 0)
(10.4071 0.33737 0)
(10.3699 0.355974 0)
(10.3303 0.375792 0)
(10.2881 0.39688 0)
(10.2432 0.419292 0)
(10.1954 0.443079 0)
(10.1444 0.468291 0)
(10.0899 0.494973 0)
(10.0318 0.523167 0)
(9.96973 0.552905 0)
(9.90331 0.584212 0)
(9.8322 0.617103 0)
(9.756 0.651578 0)
(9.67427 0.687622 0)
(9.58653 0.725198 0)
(9.49223 0.764249 0)
(9.39079 0.804685 0)
(9.28153 0.846386 0)
(9.16374 0.889192 0)
(9.03662 0.932896 0)
(8.89927 0.97724 0)
(8.75072 1.02191 0)
(8.5899 1.06651 0)
(8.41564 1.11058 0)
(8.22664 1.1536 0)
(8.02151 1.19491 0)
(7.79875 1.23382 0)
(7.55677 1.26949 0)
(7.29387 1.30101 0)
(7.00833 1.32736 0)
(6.6984 1.34744 0)
(6.36236 1.36001 0)
(5.99859 1.36377 0)
(5.60565 1.35729 0)
(5.18246 1.33913 0)
(4.72847 1.30784 0)
(4.24417 1.2621 0)
(3.73151 1.20086 0)
(3.19471 1.12303 0)
(2.64082 1.02756 0)
(10.0001 0.0208326 0)
(10.007 0.0614926 0)
(10.02 0.0997064 0)
(10.0387 0.134071 0)
(10.0623 0.163574 0)
(10.0892 0.188033 0)
(10.1177 0.208035 0)
(10.1466 0.224564 0)
(10.1752 0.238571 0)
(10.2033 0.250645 0)
(10.2314 0.26099 0)
(10.2597 0.269578 0)
(10.2883 0.276337 0)
(10.3171 0.281258 0)
(10.346 0.284418 0)
(10.3746 0.285944 0)
(10.4029 0.285972 0)
(10.4306 0.284621 0)
(10.4577 0.281997 0)
(10.484 0.278198 0)
(10.5095 0.273326 0)
(10.5341 0.2675 0)
(10.5576 0.260848 0)
(10.5801 0.253515 0)
(10.6014 0.245651 0)
(10.6214 0.23741 0)
(10.6403 0.228944 0)
(10.658 0.220394 0)
(10.6745 0.211894 0)
(10.6899 0.20356 0)
(10.7043 0.195491 0)
(10.7177 0.187768 0)
(10.7302 0.180453 0)
(10.742 0.17359 0)
(10.7532 0.167203 0)
(10.7637 0.161303 0)
(10.7737 0.155887 0)
(10.7833 0.150941 0)
(10.7926 0.146444 0)
(10.8015 0.142369 0)
(10.8101 0.138689 0)
(10.8186 0.135374 0)
(10.8268 0.132394 0)
(10.8348 0.129719 0)
(10.8428 0.127318 0)
(10.8506 0.125163 0)
(10.8582 0.123226 0)
(10.8658 0.121481 0)
(10.8733 0.119904 0)
(10.8806 0.118473 0)
(10.8879 0.117171 0)
(10.895 0.115981 0)
(10.9021 0.114889 0)
(10.909 0.113882 0)
(10.9158 0.112952 0)
(10.9226 0.112088 0)
(10.9291 0.111286 0)
(10.9356 0.110537 0)
(10.9419 0.10984 0)
(10.9481 0.109189 0)
(10.9542 0.108583 0)
(10.9601 0.10802 0)
(10.9658 0.107499 0)
(10.9714 0.107019 0)
(10.9768 0.106581 0)
(10.9821 0.106186 0)
(10.9872 0.105835 0)
(10.9922 0.105528 0)
(10.9969 0.105268 0)
(11.0015 0.105057 0)
(11.0059 0.104898 0)
(11.0101 0.104792 0)
(11.0141 0.104743 0)
(11.0179 0.104754 0)
(11.0215 0.104829 0)
(11.0249 0.104971 0)
(11.028 0.105185 0)
(11.031 0.105475 0)
(11.0337 0.105846 0)
(11.0362 0.106304 0)
(11.0384 0.106853 0)
(11.0404 0.1075 0)
(11.0422 0.108251 0)
(11.0436 0.109114 0)
(11.0448 0.110096 0)
(11.0457 0.111206 0)
(11.0464 0.112451 0)
(11.0467 0.113842 0)
(11.0467 0.115389 0)
(11.0463 0.117102 0)
(11.0457 0.118993 0)
(11.0447 0.121075 0)
(11.0433 0.123361 0)
(11.0415 0.125866 0)
(11.0393 0.128605 0)
(11.0368 0.131595 0)
(11.0337 0.134853 0)
(11.0303 0.138398 0)
(11.0263 0.142251 0)
(11.0219 0.146433 0)
(11.017 0.150968 0)
(11.0115 0.155879 0)
(11.0054 0.161193 0)
(10.9988 0.166939 0)
(10.9915 0.173144 0)
(10.9836 0.179842 0)
(10.975 0.187066 0)
(10.9657 0.19485 0)
(10.9556 0.203232 0)
(10.9447 0.212252 0)
(10.933 0.22195 0)
(10.9204 0.232373 0)
(10.9069 0.243566 0)
(10.8923 0.255576 0)
(10.8768 0.268454 0)
(10.8601 0.282254 0)
(10.8423 0.297031 0)
(10.8232 0.312842 0)
(10.8028 0.329748 0)
(10.781 0.34781 0)
(10.7578 0.367091 0)
(10.7329 0.387656 0)
(10.7064 0.409573 0)
(10.6781 0.432907 0)
(10.6478 0.457728 0)
(10.6155 0.484101 0)
(10.581 0.512095 0)
(10.5441 0.541773 0)
(10.5046 0.573197 0)
(10.4624 0.606426 0)
(10.4171 0.641511 0)
(10.3686 0.678496 0)
(10.3166 0.717416 0)
(10.2607 0.758294 0)
(10.2007 0.801138 0)
(10.136 0.845936 0)
(10.0663 0.892654 0)
(9.99106 0.941232 0)
(9.9097 0.991577 0)
(9.82162 1.04356 0)
(9.72607 1.097 0)
(9.62226 1.15168 0)
(9.50927 1.20731 0)
(9.38607 1.26353 0)
(9.25153 1.31994 0)
(9.10433 1.37601 0)
(8.94305 1.43116 0)
(8.76611 1.4847 0)
(8.57176 1.53584 0)
(8.35813 1.58366 0)
(8.12316 1.62714 0)
(7.86469 1.66511 0)
(7.58043 1.69627 0)
(7.26807 1.71918 0)
(6.92527 1.7323 0)
(6.54987 1.73397 0)
(6.14007 1.72235 0)
(5.69453 1.69548 0)
(5.21291 1.65083 0)
(4.69576 1.58562 0)
(10.0001 0.0174371 0)
(10.0056 0.051662 0)
(10.016 0.084221 0)
(10.0311 0.114183 0)
(10.0504 0.140743 0)
(10.0729 0.163527 0)
(10.0976 0.182669 0)
(10.1234 0.198676 0)
(10.1495 0.212185 0)
(10.1756 0.223717 0)
(10.2018 0.233558 0)
(10.2281 0.241786 0)
(10.2548 0.248383 0)
(10.2816 0.253336 0)
(10.3086 0.256689 0)
(10.3355 0.258532 0)
(10.3622 0.258984 0)
(10.3884 0.258163 0)
(10.4141 0.256176 0)
(10.4391 0.253121 0)
(10.4634 0.249097 0)
(10.4869 0.244208 0)
(10.5095 0.238568 0)
(10.5312 0.232301 0)
(10.5518 0.225538 0)
(10.5714 0.21841 0)
(10.59 0.211048 0)
(10.6075 0.203577 0)
(10.624 0.19611 0)
(10.6395 0.188752 0)
(10.654 0.18159 0)
(10.6678 0.174697 0)
(10.6807 0.168132 0)
(10.6929 0.161935 0)
(10.7045 0.156134 0)
(10.7156 0.150744 0)
(10.7261 0.145767 0)
(10.7362 0.141197 0)
(10.746 0.137021 0)
(10.7555 0.13322 0)
(10.7647 0.129775 0)
(10.7737 0.12666 0)
(10.7824 0.123851 0)
(10.7911 0.121322 0)
(10.7995 0.119049 0)
(10.8079 0.117005 0)
(10.8161 0.115168 0)
(10.8243 0.113514 0)
(10.8323 0.112023 0)
(10.8403 0.110675 0)
(10.8482 0.109455 0)
(10.8559 0.108347 0)
(10.8636 0.107339 0)
(10.8713 0.106419 0)
(10.8788 0.105578 0)
(10.8863 0.104808 0)
(10.8936 0.104103 0)
(10.9009 0.103457 0)
(10.908 0.102865 0)
(10.9151 0.102326 0)
(10.922 0.101835 0)
(10.9289 0.101392 0)
(10.9356 0.100995 0)
(10.9422 0.100644 0)
(10.9487 0.10034 0)
(10.9551 0.100082 0)
(10.9614 0.0998725 0)
(10.9675 0.0997124 0)
(10.9735 0.0996035 0)
(10.9793 0.099548 0)
(10.985 0.0995485 0)
(10.9906 0.0996076 0)
(10.996 0.0997286 0)
(11.0012 0.0999149 0)
(11.0063 0.10017 0)
(11.0112 0.100499 0)
(11.016 0.100905 0)
(11.0206 0.101393 0)
(11.0249 0.101969 0)
(11.0292 0.102638 0)
(11.0332 0.103406 0)
(11.037 0.104279 0)
(11.0406 0.105265 0)
(11.044 0.106372 0)
(11.0471 0.107606 0)
(11.0501 0.108977 0)
(11.0528 0.110495 0)
(11.0552 0.112168 0)
(11.0574 0.114008 0)
(11.0593 0.116026 0)
(11.061 0.118235 0)
(11.0623 0.120647 0)
(11.0634 0.123278 0)
(11.0641 0.126141 0)
(11.0645 0.129254 0)
(11.0646 0.132634 0)
(11.0643 0.136298 0)
(11.0636 0.140269 0)
(11.0626 0.144565 0)
(11.0611 0.149211 0)
(11.0593 0.15423 0)
(11.057 0.159648 0)
(11.0542 0.165492 0)
(11.051 0.171793 0)
(11.0472 0.17858 0)
(11.0429 0.185887 0)
(11.0381 0.193749 0)
(11.0327 0.202203 0)
(11.0268 0.211289 0)
(11.0202 0.221047 0)
(11.0129 0.23152 0)
(11.005 0.242758 0)
(10.9963 0.254808 0)
(10.9869 0.26772 0)
(10.9767 0.28155 0)
(10.9657 0.296352 0)
(10.9538 0.312187 0)
(10.941 0.329116 0)
(10.9272 0.347203 0)
(10.9124 0.366515 0)
(10.8966 0.387122 0)
(10.8796 0.409094 0)
(10.8614 0.432506 0)
(10.842 0.457431 0)
(10.8212 0.483948 0)
(10.799 0.512134 0)
(10.7753 0.542066 0)
(10.75 0.573823 0)
(10.7229 0.607482 0)
(10.694 0.643116 0)
(10.6631 0.680798 0)
(10.63 0.720594 0)
(10.5946 0.762564 0)
(10.5566 0.806761 0)
(10.5159 0.853224 0)
(10.4721 0.901982 0)
(10.425 0.953046 0)
(10.3742 1.00641 0)
(10.3194 1.06203 0)
(10.26 1.11985 0)
(10.1957 1.17977 0)
(10.1257 1.24165 0)
(10.0494 1.30531 0)
(9.96598 1.37051 0)
(9.8746 1.43694 0)
(9.77418 1.50426 0)
(9.66355 1.572 0)
(9.54138 1.63965 0)
(9.40615 1.70658 0)
(9.25617 1.77204 0)
(9.08954 1.83517 0)
(8.90418 1.89497 0)
(8.69776 1.95027 0)
(8.46783 1.99977 0)
(8.21172 2.04194 0)
(7.92667 2.0751 0)
(7.60992 2.09721 0)
(7.25859 2.10601 0)
(6.87019 2.09866 0)
(6.44207 2.07199 0)
(10 0.0147593 0)
(10.0046 0.0438223 0)
(10.0132 0.0717214 0)
(10.0257 0.0977697 0)
(10.0419 0.121377 0)
(10.0611 0.142151 0)
(10.0826 0.160019 0)
(10.1056 0.175196 0)
(10.1293 0.188059 0)
(10.1535 0.198998 0)
(10.1779 0.208291 0)
(10.2026 0.216076 0)
(10.2275 0.222392 0)
(10.2527 0.227245 0)
(10.278 0.230664 0)
(10.3034 0.232714 0)
(10.3286 0.233489 0)
(10.3535 0.233093 0)
(10.3779 0.231629 0)
(10.4018 0.229194 0)
(10.425 0.225883 0)
(10.4476 0.221789 0)
(10.4694 0.217015 0)
(10.4903 0.211669 0)
(10.5104 0.205861 0)
(10.5296 0.199707 0)
(10.5478 0.19332 0)
(10.5651 0.186806 0)
(10.5814 0.180265 0)
(10.5969 0.173788 0)
(10.6116 0.167454 0)
(10.6254 0.161327 0)
(10.6386 0.155461 0)
(10.651 0.149896 0)
(10.6629 0.144659 0)
(10.6742 0.139767 0)
(10.6851 0.135228 0)
(10.6955 0.13104 0)
(10.7056 0.127196 0)
(10.7153 0.123685 0)
(10.7248 0.120489 0)
(10.734 0.11759 0)
(10.743 0.114968 0)
(10.7519 0.112602 0)
(10.7605 0.110469 0)
(10.7691 0.10855 0)
(10.7775 0.106824 0)
(10.7858 0.10527 0)
(10.794 0.103872 0)
(10.8021 0.102613 0)
(10.8102 0.101477 0)
(10.8181 0.100452 0)
(10.826 0.0995264 0)
(10.8337 0.0986892 0)
(10.8414 0.0979322 0)
(10.849 0.0972479 0)
(10.8565 0.0966302 0)
(10.864 0.0960741 0)
(10.8713 0.0955754 0)
(10.8786 0.095131 0)
(10.8857 0.0947387 0)
(10.8928 0.0943968 0)
(10.8997 0.0941045 0)
(10.9066 0.0938614 0)
(10.9133 0.0936677 0)
(10.92 0.0935242 0)
(10.9265 0.093432 0)
(10.933 0.0933925 0)
(10.9393 0.0934079 0)
(10.9455 0.0934802 0)
(10.9515 0.0936122 0)
(10.9575 0.0938069 0)
(10.9633 0.0940674 0)
(10.969 0.0943975 0)
(10.9745 0.0948011 0)
(10.9799 0.0952826 0)
(10.9851 0.0958465 0)
(10.9902 0.096498 0)
(10.9952 0.0972426 0)
(11 0.0980861 0)
(11.0046 0.0990349 0)
(11.009 0.100096 0)
(11.0133 0.101276 0)
(11.0174 0.102584 0)
(11.0212 0.104027 0)
(11.0249 0.105615 0)
(11.0284 0.107357 0)
(11.0317 0.109265 0)
(11.0347 0.111348 0)
(11.0375 0.113619 0)