/*--------------------------------*- C++ -*----------------------------------*\
| =========                 |                                                 |
| \\      /  F ield         | OpenFOAM: The Open Source CFD Toolbox           |
|  \\    /   O peration     | Version:  2306                                  |
|   \\  /    A nd           | Website:  www.openfoam.com                      |
|    \\/     M anipulation  |                                                 |
\*---------------------------------------------------------------------------*/
FoamFile
{
    version     2.0;
    format      ascii;
    arch        "LSB;label=32;scalar=64";
    class       volScalarField;
    location    "0.275";
    object      p;
}
// * * * * * * * * * * * * * * * * * * * * * * * * * * * * * * * * * * * * * //

dimensions      [0 2 -2 0 0 0 0];

internalField   nonuniform List<scalar> 
4400
(
408.984
407.969
407.061
406.389
405.94
405.633
405.389
405.159
404.926
404.686
404.44
404.192
403.945
403.699
403.455
403.212
402.969
402.725
402.481
402.237
401.993
401.748
401.504
401.261
401.019
400.778
400.54
400.303
400.07
399.84
399.615
399.394
399.178
398.969
398.766
398.57
398.382
398.202
398.033
397.872
397.723
397.585
397.459
397.345
397.243
397.155
397.08
397.018
396.969
396.933
396.908
396.894
396.888
396.889
396.893
396.894
396.891
396.874
396.84
396.778
396.684
396.55
396.377
396.175
395.992
395.874
395.89
396.115
396.583
397.262
398.063
398.713
398.928
398.622
398.382
398.09
398.27
398.292
398.03
397.998
407.522
407.179
406.747
406.306
405.914
405.59
405.321
405.086
404.862
404.638
404.407
404.17
403.929
403.686
403.443
403.2
402.957
402.715
402.472
402.23
401.986
401.743
401.5
401.258
401.016
400.776
400.538
400.302
400.07
399.84
399.615
399.393
399.178
398.967
398.764
398.567
398.379
398.198
398.026
397.864
397.713
397.572
397.442
397.325
397.22
397.128
397.049
396.983
396.929
396.889
396.859
396.84
396.83
396.826
396.825
396.824
396.816
396.798
396.762
396.701
396.607
396.477
396.308
396.116
395.933
395.824
395.863
396.142
396.709
397.564
398.6
399.48
399.479
398.584
397.985
397.544
397.49
397.842
397.965
398.105
406.976
406.81
406.553
406.235
405.901
405.587
405.305
405.056
404.826
404.605
404.382
404.152
403.917
403.678
403.436
403.194
402.951
402.709
402.467
402.225
401.982
401.74
401.498
401.256
401.015
400.776
400.538
400.302
400.069
399.839
399.613
399.391
399.174
398.963
398.757
398.558
398.366
398.181
398.006
397.838
397.681
397.532
397.395
397.268
397.151
397.047
396.953
396.871
396.8
396.739
396.689
396.646
396.612
396.581
396.555
396.525
396.493
396.448
396.394
396.317
396.221
396.104
395.97
395.841
395.742
395.744
395.885
396.214
396.726
397.402
398.116
398.621
398.737
398.486
398.352
398.267
398.379
398.906
398.265
397.225
406.561
406.461
406.287
406.054
405.788
405.516
405.253
405.008
404.778
404.557
404.338
404.116
403.888
403.655
403.417
403.178
402.937
402.696
402.455
402.214
401.973
401.731
401.49
401.249
401.009
400.769
400.532
400.296
400.062
399.832
399.605
399.382
399.163
398.949
398.74
398.537
398.341
398.151
397.969
397.794
397.629
397.47
397.322
397.181
397.052
396.93
396.819
396.717
396.624
396.541
396.462
396.394
396.327
396.266
396.204
396.141
396.073
395.998
395.913
395.815
395.709
395.592
395.482
395.387
395.343
395.374
395.51
395.765
396.127
396.582
397.056
397.464
397.735
397.854
397.856
397.773
397.628
397.458
397.14
397.313
406.261
406.192
406.067
405.893
405.681
405.448
405.21
404.976
404.749
404.528
404.309
404.09
403.866
403.637
403.404
403.167
402.929
402.689
402.448
402.207
401.966
401.725
401.484
401.243
401.003
400.763
400.526
400.289
400.054
399.823
399.594
399.369
399.147
398.93
398.718
398.51
398.309
398.113
397.924
397.741
397.567
397.398
397.238
397.084
396.939
396.802
396.672
396.55
396.434
396.327
396.22
396.124
396.023
395.931
395.831
395.735
395.629
395.519
395.402
395.275
395.149
395.016
394.902
394.801
394.749
394.74
394.812
394.947
395.169
395.443
395.762
396.074
396.331
396.517
396.575
396.598
396.589
396.747
397.072
397.59
406.043
405.99
405.893
405.755
405.581
405.38
405.164
404.943
404.722
404.503
404.284
404.066
403.844
403.619
403.388
403.155
402.918
402.679
402.439
402.199
401.958
401.717
401.476
401.234
400.994
400.754
400.515
400.277
400.042
399.809
399.577
399.35
399.125
398.905
398.688
398.476
398.269
398.068
397.871
397.68
397.496
397.317
397.144
396.978
396.819
396.664
396.518
396.373
396.237
396.102
395.973
395.844
395.716
395.588
395.457
395.323
395.181
395.038
394.884
394.728
394.569
394.41
394.264
394.129
394.03
393.954
393.937
393.96
394.044
394.171
394.336
394.512
394.674
394.802
394.898
394.985
395.151
395.434
395.91
396.495
405.884
405.841
405.76
405.643
405.493
405.316
405.12
404.911
404.698
404.481
404.264
404.045
403.825
403.601
403.373
403.142
402.907
402.669
402.43
402.19
401.949
401.708
401.466
401.225
400.983
400.743
400.502
400.263
400.026
399.791
399.557
399.327
399.099
398.875
398.653
398.437
398.223
398.015
397.812
397.612
397.419
397.228
397.045
396.865
396.692
396.519
396.357
396.191
396.035
395.875
395.721
395.564
395.407
395.247
395.084
394.916
394.738
394.562
394.368
394.181
393.978
393.788
393.586
393.412
393.233
393.094
392.968
392.888
392.834
392.818
392.833
392.852
392.903
392.92
392.99
393.052
393.241
393.501
393.963
394.569
405.773
405.735
405.663
405.559
405.425
405.264
405.081
404.884
404.677
404.463
404.248
404.03
403.81
403.586
403.36
403.13
402.896
402.66
402.422
402.182
401.94
401.698
401.455
401.214
400.97
400.729
400.487
400.247
400.007
399.77
399.534
399.3
399.069
398.84
398.615
398.392
398.174
397.957
397.747
397.538
397.337
397.134
396.941
396.746
396.559
396.372
396.19
396.007
395.829
395.647
395.467
395.286
395.099
394.91
394.715
394.514
394.302
394.09
393.857
393.632
393.383
393.148
392.891
392.655
392.405
392.177
391.958
391.752
391.576
391.408
391.268
391.142
391.025
390.945
390.873
390.869
390.935
391.115
391.457
391.969
405.701
405.665
405.6
405.503
405.378
405.227
405.054
404.864
404.661
404.451
404.237
404.019
403.799
403.576
403.35
403.121
402.887
402.652
402.413
402.173
401.931
401.687
401.445
401.201
400.957
400.714
400.47
400.228
399.987
399.746
399.507
399.27
399.035
398.801
398.572
398.343
398.119
397.896
397.677
397.46
397.249
397.036
396.831
396.624
396.422
396.221
396.02
395.821
395.621
395.42
395.214
395.012
394.792
394.582
394.349
394.12
393.873
393.622
393.355
393.078
392.796
392.49
392.194
391.869
391.558
391.228
390.91
390.588
390.268
389.964
389.653
389.369
389.078
388.838
388.595
388.444
388.326
388.352
388.486
388.829
405.666
405.631
405.567
405.475
405.354
405.208
405.038
404.853
404.651
404.444
404.23
404.012
403.792
403.568
403.343
403.113
402.88
402.645
402.405
402.165
401.922
401.677
401.434
401.187
400.943
400.697
400.452
400.207
399.963
399.72
399.478
399.237
398.997
398.76
398.524
398.29
398.06
397.83
397.604
397.378
397.158
396.934
396.719
396.499
396.282
396.069
395.848
395.636
395.412
395.195
394.962
394.74
394.492
394.255
393.994
393.73
393.454
393.16
392.86
392.533
392.205
391.841
391.483
391.088
390.692
390.273
389.841
389.4
388.939
388.479
388.003
387.525
387.063
386.594
386.167
385.779
385.448
385.232
385.116
385.186
405.665
405.631
405.566
405.473
405.352
405.207
405.037
404.851
404.649
404.442
404.227
404.01
403.789
403.564
403.339
403.108
402.875
402.638
402.398
402.157
401.912
401.666
401.421
401.173
400.928
400.679
400.433
400.185
399.938
399.692
399.445
399.201
398.958
398.714
398.475
398.234
397.998
397.762
397.526
397.294
397.062
396.832
396.603
396.373
396.141
395.916
395.677
395.45
395.208
394.969
394.72
394.468
394.201
393.935
393.645
393.352
393.042
392.711
392.37
392.001
391.618
391.203
390.777
390.309
389.831
389.31
388.776
388.194
387.604
386.964
386.318
385.636
384.944
384.256
383.557
382.905
382.304
381.765
381.378
381.105
405.698
405.664
405.596
405.498
405.374
405.224
405.05
404.859
404.654
404.445
404.229
404.011
403.79
403.564
403.338
403.105
402.872
402.633
402.392
402.149
401.902
401.656
401.408
401.16
400.912
400.66
400.412
400.16
399.912
399.661
399.411
399.163
398.915
398.667
398.423
398.175
397.933
397.69
397.446
397.208
396.965
396.725
396.487
396.243
396.003
395.76
395.509
395.266
395.004
394.749
394.478
394.207
393.914
393.627
393.305
392.986
392.641
392.276
391.893
391.481
391.048
390.576
390.089
389.541
388.988
388.357
387.718
387.005
386.251
385.463
384.592
383.706
382.77
381.787
380.803
379.835
378.862
377.992
377.216
376.601
405.768
405.731
405.657
405.552
405.418
405.258
405.075
404.876
404.666
404.454
404.236
404.017
403.795
403.568
403.341
403.105
402.871
402.629
402.387
402.141
401.892
401.646
401.395
401.146
400.894
400.64
400.39
400.134
399.884
399.628
399.375
399.124
398.869
398.618
398.367
398.114
397.867
397.615
397.366
397.119
396.867
396.619
396.369
396.115
395.862
395.608
395.34
395.086
394.805
394.534
394.246
393.948
393.642
393.322
392.981
392.632
392.257
391.852
391.442
390.973
390.502
389.974
389.415
388.814
388.15
387.451
386.674
385.836
384.941
383.94
382.892
381.747
380.528
379.255
377.899
376.547
375.156
373.851
372.592
371.57
405.877
405.836
405.753
405.635
405.485
405.308
405.11
404.9
404.684
404.467
404.247
404.028
403.803
403.576
403.345
403.107
402.871
402.625
402.383
402.134
401.884
401.636
401.381
401.133
400.875
400.621
400.366
400.107
399.855
399.594
399.338
399.081
398.822
398.567
398.31
398.051
397.798
397.539
397.282
397.029
396.765
396.514
396.249
395.986
395.726
395.452
395.182
394.903
394.615
394.322
394.021
393.699
393.38
393.03
392.669
392.293
391.886
391.455
391.001
390.499
389.974
389.402
388.777
388.106
387.377
386.553
385.698
384.707
383.647
382.5
381.182
379.809
378.291
376.627
374.887
373.096
371.124
369.29
367.491
365.768
406.034
405.983
405.885
405.746
405.571
405.369
405.152
404.929
404.706
404.486
404.263
404.043
403.816
403.587
403.352
403.112
402.872
402.624
402.38
402.127
401.878
401.626
401.369
401.119
400.856
400.603
400.342
400.081
399.824
399.559
399.3
399.038
398.774
398.515
398.25
397.988
397.726
397.462
397.198
396.937
396.666
396.403
396.134
395.857
395.59
395.301
395.022
394.729
394.425
394.123
393.798
393.466
393.122
392.755
392.37
391.976
391.529
391.083
390.591
390.037
389.505
388.837
388.192
387.455
386.609
385.774
384.728
383.664
382.45
381.081
379.566
377.946
376.036
373.999
371.85
369.356
366.876
364.273
361.66
359.205
406.251
406.182
406.058
405.882
405.67
405.435
405.195
404.959
404.73
404.508
404.285
404.063
403.832
403.601
403.36
403.119
402.873
402.623
402.376
402.121
401.872
401.615
401.359
401.103
400.839
400.582
400.317
400.054
399.792
399.523
399.261
398.992
398.726
398.459
398.191
397.922
397.655
397.384
397.113
396.845
396.566
396.297
396.014
395.737
395.45
395.161
394.864
394.563
394.244
393.931
393.587
393.241
392.886
392.481
392.104
391.661
391.206
390.738
390.191
389.639
389.031
388.349
387.636
386.853
385.939
385.014
383.888
382.687
381.356
379.775
378.103
376.122
373.936
371.442
368.733
365.565
362.261
358.795
355.051
351.472
406.549
406.45
406.277
406.042
405.776
405.5
405.237
404.988
404.758
404.534
404.31
404.085
403.849
403.614
403.367
403.124
402.872
402.622
402.372
402.115
401.864
401.604
401.347
401.086
400.821
400.559
400.292
400.025
399.759
399.486
399.22
398.946
398.676
398.402
398.131
397.853
397.583
397.304
397.025
396.754
396.461
396.193
395.893
395.614
395.315
395.014
394.716
394.392
394.077
393.742
393.39
393.031
392.654
392.24
391.836
391.389
390.881
390.439
389.795
389.283
388.595
387.879
387.175
386.269
385.374
384.333
383.132
381.825
380.383
378.599
376.781
374.573
371.903
369.157
365.723
361.714
357.448
352.702
347.444
342.337
406.963
406.798
406.542
406.222
405.889
405.569
405.288
405.034
404.804
404.579
404.351
404.118
403.875
403.633
403.381
403.134
402.879
402.628
402.373
402.116
401.86
401.599
401.337
401.074
400.806
400.539
400.271
399.996
399.73
399.451
399.179
398.904
398.626
398.347
398.075
397.784
397.516
397.224
396.944
396.663
396.366
396.088
395.786
395.494
395.194
394.88
394.579
394.242
393.923
393.575
393.21
392.85
392.45
392.02
391.63
391.106
390.657
390.125
389.49
388.974
388.204
387.493
386.782
385.741
384.914
383.752
382.444
381.176
379.501
377.635
375.701
373.158
370.307
367.227
362.945
358.175
352.836
345.757
338.631
331.16
407.508
407.167
406.736
406.292
405.901
405.571
405.302
405.063
404.838
404.61
404.374
404.133
403.884
403.638
403.383
403.136
402.88
402.627
402.372
402.112
401.854
401.592
401.324
401.062
400.788
400.519
400.248
399.968
399.699
399.416
399.139
398.861
398.576
398.295
398.017
397.72
397.45
397.148
396.869
396.575
396.279
395.991
395.682
395.392
395.068
394.766
394.44
394.099
393.784
393.414
393.055
392.688
392.283
391.841
391.47
390.874
390.491
389.876
389.272
388.752
387.9
387.235
386.399
385.433
384.375
383.531
381.744
380.747
378.858
376.892
374.927
371.997
369.1
365.851
360.111
355.917
347.747
339.156
327.508
315.636
408.968
407.957
407.05
406.376
405.925
405.614
405.368
405.136
404.9
404.658
404.405
404.154
403.898
403.648
403.394
403.144
402.889
402.633
402.377
402.115
401.854
401.591
401.321
401.057
400.78
400.512
400.235
399.957
399.682
399.4
399.119
398.839
398.551
398.27
397.983
397.695
397.409
397.118
396.828
396.536
396.241
395.942
395.644
395.339
395.027
394.723
394.388
394.07
393.728
393.364
393.022
392.61
392.236
391.784
391.374
390.849
390.402
389.794
389.239
388.611
387.882
387.104
386.359
385.155
384.417
383.092
381.773
380.585
378.761
376.586
374.822
371.287
369.057
364.237
360.146
354.303
346.348
335.09
320.203
297.578
398.21
398.377
398.421
398.324
397.995
397.471
396.856
396.235
395.621
394.942
394.009
393.347
392.615
391.551
390.713
390.766
392.085
394.588
396.771
399.052
398.439
398.451
398.465
398.427
398.124
397.571
396.888
396.217
395.638
395.025
394.053
392.934
391.745
390.425
389.465
389.368
390.465
393
394.775
396.8
397.135
397.986
398.748
398.796
398.388
397.689
396.946
396.143
395.437
394.623
393.364
391.782
390.063
388.503
387.424
387.101
387.792
390.358
392.227
393.917
398.374
399.303
398.785
398.939
399.293
398.301
397.17
395.991
394.97
393.871
392.387
390.462
388.436
386.762
385.832
385.634
385.995
388.354
390.167
391.645
398.278
398.725
399.851
401.768
400.855
399.094
397.774
396.15
394.536
393.053
391.182
388.984
386.952
385.531
384.898
384.894
385.182
387.568
389.009
390.271
397.308
398.361
399.8
400.831
401.349
401.491
399.399
396.396
394.238
392.291
390.18
388.051
386.079
384.969
384.643
384.917
385.316
387.733
388.638
390.076
395.457
396.55
397.798
398.889
399.787
399.66
398.363
396.486
394.133
391.351
389.152
387.288
385.773
385.098
384.93
385.408
386.122
388.232
389.052
391.282
392.717
393.63
394.693
395.705
396.476
396.577
395.877
394.323
392.195
389.871
387.582
385.701
384.617
385.157
385.877
387.574
388.835
390.357
391.18
393.855
389.308
390.016
390.809
391.629
392.283
392.524
392.238
391.274
389.69
387.924
386.117
384.948
383.993
383.461
383.411
383.829
385.147
387.646
390.39
394.099
385.413
385.823
386.374
386.989
387.56
387.997
388.072
387.899
387.407
386.725
386.131
386.1
387.703
390.056
390.064
392.364
395.401
397.31
397.781
401.493
381.062
381.148
381.495
381.976
382.492
383.126
383.79
384.272
385.023
386.691
389.869
393.984
397.665
390.434
377.865
376.55
386.673
392.584
395.094
401.125
376.176
376.028
376.091
376.436
377.168
377.948
379.066
380.392
381.744
382.809
383.752
383.947
381.816
379.019
380.277
384.488
390.302
397.984
404.38
407.305
370.679
370.167
370.125
370.282
370.976
372.183
373.76
375.806
378.314
380.699
382.345
383.887
385.494
388.404
392.431
397.689
400.693
402.434
403.279
403.276
364.478
363.433
362.964
363.32
364.2
365.654
367.496
369.313
371.425
374.335
377.839
382.117
386.553
390.834
394.014
396.778
399.106
401.33
404.028
404.943
357.07
355.625
354.67
354.549
355.835
358.39
362.048
365.749
368.724
371.241
374.105
378.372
383.354
388.155
392.673
396.769
400.443
402.917
404.953
406.624
348.292
345.887
344.776
344.783
346.073
348.466
351.634
355.561
360.61
366.088
371.787
377.499
382.325
386.789
391.667
396.743
401.066
404.378
407.081
408.792
337.495
333.4
331.148
332.077
336.19
341.276
345.52
348.008
351.403
357.482
365.283
372.414
378.377
383.956
389.771
395.591
400.807
404.836
407.624
409.287
324.14
317.915
314.118
314.704
319.435
326.181
333.427
340.442
347.374
354.017
361.075
368.017
374.322
380.5
387.029
393.252
398.723
403.423
406.885
408.433
303.096
294.148
293.101
299.004
306.539
311.457
316.31
324.264
335.215
345.905
354.84
362.384
369.38
376.255
382.902
389.205
395.216
400.137
403.246
404.791
268.894
251.801
256.388
272.897
289.124
300.227
306.262
313.352
324.398
336.625
346.582
354.767
362.835
370.81
377.854
383.965
389.741
394.397
397.256
398.642
223.478
214.547
223.481
239.871
256.869
273.334
288.216
301.245
314.349
327.433
338.339
346.962
355.534
364.067
371.38
377.399
382.874
387.425
390.171
391.328
217.365
211.013
217.239
222.534
231.007
243.061
260.559
282.77
302.61
317.736
329.354
338.643
347.441
356.233
363.95
370.215
375.798
380.162
382.458
383.477
214.477
219.102
218.628
215.853
217.921
221.469
235.435
262.717
287.486
306.007
319.438
329.986
339.605
348.628
356.283
362.347
367.585
371.552
373.804
374.968
212.21
211.462
210.847
208.809
206.836
203.998
214.206
241.877
270.754
292.845
308.454
320.672
331.237
340.314
347.917
354.105
359.218
362.984
365.228
366.404
209.708
207.953
201.938
196.453
186.143
183.031
191.543
221.471
254.476
280.04
297.605
311.306
322.608
331.757
339.291
345.454
350.701
354.596
356.871
357.977
209.617
205.281
196.047
180.1
164.403
155.47
164.564
202.786
242.667
270.212
288.65
303.626
315.047
323.686
330.938
337.127
342.365
346.289
348.594
349.664
211.783
205.551
193.213
166.072
143.035
127.252
145.524
188.611
231.981
261.651
281.975
297.551
308.855
317.069
323.553
329.102
334.179
338.145
340.494
341.592
222.165
215.241
197.931
164.995
126.021
114.887
140.96
180.624
227.85
256.848
275.801
291.629
302.936
311.002
317.14
322.091
326.592
330.206
332.386
333.436
231.988
225.112
207.37
174.463
133.504
129.567
152.995
192.088
238.228
259.581
275.486
287.994
297.57
305.038
310.929
315.661
319.717
322.855
324.741
325.694
242.101
233.869
218.632
194.334
170.591
172.036
190.274
227.695
254.683
272.375
282.957
289.597
295.647
300.979
305.528
309.403
312.962
315.837
317.58
318.414
241.473
234.232
225.461
218.595
216.769
229.482
246.242
269.109
278.521
286.528
290.157
293.572
296.019
298.793
301.603
304.273
306.838
309.148
310.618
311.327
236.13
232.77
230.177
236.278
251.281
275.363
292.711
300.222
303.343
298.639
296.939
296.368
296.007
296.66
297.865
299.365
301.122
302.778
303.892
304.435
238.35
236.146
237.369
246.661
267.701
298.191
317.231
317.826
315.695
308.415
301.267
297.371
294.989
293.532
293.557
294.258
295.339
296.425
297.159
297.591
244.211
243.675
244.536
252.416
271.751
300.635
319.998
321.726
316.36
308.715
299.569
294.505
291.285
289.031
287.999
288.14
288.989
289.89
290.55
290.858
247.893
248.478
249.052
255.2
270.402
289.712
306.223
309.964
306.679
299.384
292.265
286.475
283.493
281.889
280.92
281.06
281.998
282.913
283.435
283.743
249.293
250.491
250.871
251.959
259.905
270.352
280.843
284.279
284.196
280.738
276.971
273.074
271.938
271.777
271.799
272.618
273.999
275.156
275.999
276.419
252.962
251.97
246.141
240.555
239.861
242.563
247.157
249.839
252.81
253.91
253.706
254.083
256.074
258.351
260.45
262.692
265.023
266.776
267.848
268.359
251.923
244.922
232.108
220.078
212.033
208.819
209.221
211.409
216.5
221.509
225.265
230.332
236.226
241.697
246.801
251.28
254.875
257.403
259.146
260.128
239.052
227.951
209.552
192.753
179.865
172.753
170.218
172.359
178.809
186.221
193.798
203.799
213.765
222.491
230.97
238.287
243.894
247.727
250.205
251.341
214.951
202.033
181.103
161.767
146.41
137.385
133.493
135.377
142.44
151.177
161.852
176.516
190.223
202.049
214.147
224.613
232.253
237.428
240.945
242.799
184.603
171.36
150.295
130.453
114.376
104.47
100.355
101.962
109.001
118.578
131.971
150.247
166.789
181.562
197.311
210.862
220.684
227.65
232.337
234.427
152.874
140.295
120.332
101.129
85.6816
76.0459
71.8242
73.1598
80.1545
90.2961
105.733
126.473
144.881
162.225
181.504
197.938
209.923
218.528
224.383
227.221
123.436
111.963
93.804
76.0656
61.5858
52.635
48.6559
49.9767
57.0505
67.4605
84.3473
106.88
126.528
145.793
167.516
186.398
200.613
210.999
218.451
221.681
98.9092
88.5572
72.352
56.342
43.3408
35.1456
31.7835
33.5826
40.7237
50.9667
68.8397
92.5058
112.658
133.158
156.775
177.624
193.456
205.702
214.513
218.588
80.7296
71.5885
57.1341
42.7456
31.2071
24.0412
21.4735
24.0842
31.5126
41.6714
59.998
83.3254
102.909
124.471
149.839
171.948
189.385
203.723
213.739
218.494
69.6608
61.4752
48.5513
35.6928
25.1119
18.814
16.9404
20.1935
28.0882
38.572
56.4066
78.0888
96.6574
118.724
145.51
168.961
188.947
204.852
215.983
222
65.9795
58.4707
46.7108
34.5143
24.5457
18.3272
16.6065
19.8358
27.6135
38.8369
55.3774
74.5953
93.8547
116.434
143.11
168.792
191.186
208.676
222.013
229.226
69.3426
62.2185
50.7488
39.0144
28.8279
21.9293
19.2162
21.2901
28.0419
38.9548
54.4531
72.7482
92.7135
116.604
144.527
171.974
195.376
214.712
230.678
239.534
79.2912
72.1222
60.787
48.7187
37.5705
29.0224
24.0796
24.0524
28.8358
38.654
53.7383
72.3204
93.7495
119.946
149.483
177.57
200.944
222.244
240.676
251.093
95
88.0662
76.832
63.9008
51.4039
40.3723
32.5184
29.4365
32.0206
40.8383
55.9343
75.2375
98.4519
126.635
156.732
183.599
206.822
229.331
249.11
261.453
115.816
109.226
98.249
85.1715
71.414
58.1881
47.5484
41.4559
42.168
50.2501
65.1854
84.9517
109.199
137.21
165.164
189.386
212.027
234.147
253.996
267.216
140.931
134.723
124.366
111.767
98.0791
84.2205
71.739
63.9185
63.2812
70.4302
84.4341
103.389
126.36
151.306
174.52
195.028
215.543
235.449
254.098
267.619
168.681
163.371
154.236
142.681
130.273
117.197
104.908
96.73
95.2203
100.964
112.786
128.874
147.685
166.865
184.331
200.666
217.157
233.201
249.907
262.726
197.447
193.1
185.525
176.066
165.473
154.541
143.402
135.459
133.149
136.889
145.315
156.567
169.242
181.928
193.841
205.615
217.174
227.611
237.994
247.967
225.388
222.063
216.237
208.86
200.788
191.436
181.786
174.44
171.124
172.192
176.441
182.221
188.601
195.03
201.945
209.245
216.066
220.724
220.508
230.321
251.001
248.643
244.391
238.617
232.23
224.578
216.091
208.917
204.362
202.702
203.043
203.984
204.878
206.146
208.234
210.869
214.15
217.23
215.678
219.345
273.324
271.67
268.57
264.24
258.814
252.21
244.171
236.659
230.825
226.828
223.983
221.225
218.055
215.037
212.698
211.249
211.707
215.264
219.587
213.74
291.758
290.662
288.406
284.758
279.869
273.666
265.658
257.555
250.634
244.82
239.815
234.571
228.465
222.16
216.279
211.233
208.552
209.642
220.155
211.072
306.175
305.38
303.586
300.33
295.612
289.472
281.382
272.634
265.006
257.925
251.615
244.677
236.641
227.745
219.005
211.282
206.006
203.172
212.194
209.362
316.781
316.132
314.525
311.498
306.846
300.598
292.54
283.366
275.38
267.602
260.292
252.351
243.112
232.363
221.724
212.076
204.857
200.083
205.674
206.592
324.138
323.521
322.03
319.096
314.478
308.15
300.247
290.986
282.808
274.84
266.822
258.426
248.523
236.833
224.827
213.563
204.228
198.072
198.753
203.139
328.864
328.193
326.705
323.829
319.315
313.075
305.451
296.483
288.184
280.373
272.044
263.42
253.412
241.528
228.455
216.026
204.707
197.088
196.132
201.933
331.645
330.872
329.327
326.506
322.142
316.157
308.888
300.443
292.247
284.908
276.514
267.941
258.04
246.439
233.019
219.835
206.953
199.131
197.606
203.728
332.949
332.147
330.517
327.773
323.616
318.057
311.143
303.412
295.505
288.546
280.608
272.109
262.738
251.757
238.516
225.326
212.386
205.59
204.164
209.622
333.498
332.576
330.788
328.119
324.164
319.111
312.776
305.736
298.207
291.719
284.415
276.16
267.39
257.367
245.347
232.859
221.5
216.191
216.018
219.015
333.573
332.538
330.558
327.915
324.221
319.62
313.962
307.556
300.744
294.564
288.084
280.297
272.182
263.313
252.964
242.348
233.112
228.808
228.215
230.524
333.503
332.372
330.196
327.479
324.098
319.859
314.928
309.268
303.038
297.325
291.674
284.68
277.278
269.579
261.383
252.541
244.766
240.81
240.141
241.701
333.509
332.33
330.03
327.151
324.003
320.164
315.864
310.929
305.5
300.204
295.366
289.384
282.904
276.392
269.66
262.664
256.364
253.537
253.364
254.99
333.729
332.56
330.235
327.275
324.232
320.76
316.886
312.727
308.111
303.341
299.138
294.277
288.524
282.979
277.548
272.145
267.218
264.879
265.005
266.175
334.197
333.1
330.855
327.968
324.989
321.835
318.341
314.658
310.632
306.542
302.743
298.9
293.727
289.082
284.959
280.758
277.166
274.783
274.364
276.331
334.879
333.909
331.858
329.14
326.273
323.389
320.21
316.784
313.17
309.489
306.114
302.895
298.741
294.92
291.533
288.883
286.827
287.04
289.647
289.577
335.669
334.871
333.101
330.693
327.987
325.25
322.268
319.156
315.608
312.277
309.289
306.609
303.272
299.817
297.318
295.202
293.925
293.07
293.115
293.543
336.435
335.784
334.362
332.319
329.906
327.269
324.484
321.336
318.097
314.713
312.104
309.824
307.087
304.186
301.731
300.254
299.114
298.382
298.955
300.727
337.199
336.655
335.455
333.753
331.688
329.251
326.508
323.533
320.254
317.103
314.54
312.527
310.36
307.641
305.847
304.366
303.999
304.574
305.488
306.215
337.991
337.534
336.442
334.966
333.196
330.965
328.474
325.448
322.415
319.18
316.796
314.759
312.77
310.812
309.119
308.198
308.122
308.401
309.38
309.695
338.815
338.372
337.351
336.008
334.375
332.415
330.047
327.276
324.224
321.258
318.78
316.677
315.028
313.226
311.782
310.83
310.686
310.927
311.902
312.369
339.7
339.267
338.249
336.967
335.352
333.526
331.336
328.745
325.924
323.16
320.633
318.634
316.682
315.139
313.46
312.382
312.27
312.676
312.146
313.613
340.675
340.303
339.309
338.014
336.408
334.641
332.573
330.071
327.453
324.745
322.271
320.065
318.133
316.426
314.88
313.97
313.353
313.401
313.956
314.107
341.822
341.372
340.459
339.187
337.63
335.965
333.867
331.527
328.666
326.072
323.374
321.209
319.14
317.434
315.889
314.708
314.157
314.616
315.921
317.214
343.062
342.454
341.765
340.354
338.984
337.163
335.309
332.659
329.876
327.034
324.335
321.958
319.779
317.86
316.273
315.219
314.907
314.817
315.52
312.755
344.649
344.062
343.315
341.85
340.255
338.555
336.349
333.863
330.918
327.936
325.176
322.478
320.25
318.071
315.969
314.438
312.979
312.355
310.864
313.508
346.995
346.534
345.519
343.702
342.024
339.845
337.569
334.881
331.784
328.937
325.828
323.057
320.439
317.713
315.117
313.335
311.913
310.637
312.774
310.417
349.985
349.512
348.058
346.103
343.948
341.586
338.95
335.805
332.831
329.468
326.587
323.399
320.203
317.219
314.761
311.979
310.613
309.57
305.626
308.55
353.314
352.545
350.881
348.727
346.331
343.694
340.512
337.35
333.613
330.406
326.954
323.456
320.034
316.857
313.221
310.837
307.415
305.455
303.983
302.44
356.929
355.911
354.102
351.753
349.164
346.042
342.739
338.716
334.993
330.996
327.234
323.515
319.738
315.678
312.05
307.892
304.362
301.291
296.346
298.383
360.731
359.611
357.561
355.153
352.282
348.805
344.824
340.438
335.948
331.45
327.392
323.247
318.935
314.75
310.489
305.065
300.417
295.183
291.229
287.588
364.534
363.315
361.087
358.976
355.716
351.92
347.003
342.238
336.814
331.844
327.008
322.886
318.138
314.39
308.117
303.018
295.224
289.502
278.819
277.46
367.537
365.959
364.635
362.741
359.801
355.083
350.248
343.649
337.978
332.181
326.798
322.028
318.163
312.616
307.651
299.495
290.407
280.198
266.983
252.343
369.66
367.94
368.332
367.168
364.012
360.216
352.952
346.376
339.349
332.602
326.865
322.233
317.004
311.925
305.559
295.832
284.995
267.798
242.635
218.337
374.071
373.273
374.582
373.334
371.412
365.614
358.835
350.084
341.134
334.578
327.512
322.178
316.488
311.453
302.127
292.156
275.006
253.628
225.738
140.959
381.496
382.487
382.64
381.935
379.116
373.615
364.235
353.725
345.279
335.086
328.769
321.346
316.059
307.75
297.786
285.252
265.518
232.059
192.544
51.5103
388.844
390.643
389.823
388.364
385.52
377.793
367.251
357.375
345.177
336.644
327.558
320.592
313.556
303.821
294.471
271.676
257.631
211.968
159.676
83.2482
393.766
395.694
393.807
391.177
386.51
377.17
367.61
354.696
344.768
333.847
325.826
317.934
313.785
291.78
293.193
259.462
243.108
212.623
155.511
118.731
397.298
397.782
394.637
389.88
381.76
372.182
360.077
349.809
338.325
327.183
326.112
310.449
317.815
282.617
277.949
246.501
227.391
213.686
165.183
131.781
399.305
397.01
391.869
384.122
373.969
361.598
351.605
338.195
330.109
321.302
318.882
309.301
300.828
269.632
257.255
236.716
221.789
212.953
179.644
141.636
398.212
392.884
385.517
375.906
363.321
350.159
338.616
327.055
321.552
311.855
309.477
300.479
284.938
259.291
261.842
244.388
227.925
214.079
184.72
156.369
392.582
384.335
374.511
363.299
349.588
337.258
324.441
317.579
306.674
308.113
293.27
285.64
277.962
260.669
264.683
261.277
246.238
225.205
196.439
178.371
384.555
377.158
368.198
356.028
341.471
328.369
316.481
312.359
300.272
307.294
268.854
254.816
260.912
282.547
298.246
293.605
268.476
245.341
213.414
187.59
375.961
366.217
361.339
350.679
337.962
326.237
315.272
317.955
293.573
316.717
248.481
270.372
302.421
327.499
333.762
313.338
277.875
250.194
219.695
191.047
396.912
380.71
367.32
351.781
336.951
325.639
316.53
310.635
306.209
314.736
248.713
397.459
380.451
361.005
357.957
328.716
285.887
252.542
225.275
196.787
-181.77
-82.327
-137.611
-119.501
-83.7781
-151.334
-210.907
-253.712
-263.456
-261.688
-254.099
-248.829
-260.14
-289.487
-341.216
-407.209
-482.774
-561.522
-637.376
-703.364
-754.186
-787.289
-804.348
-809.585
-802.299
-783.846
-761.826
-733.184
-686.645
-624.663
-548.192
-449.659
-335.614
-212.512
-93.8718
3.34684
73.4552
115.073
128.634
125.328
112.813
96.8369
81.959
70.2872
60.9666
53.2921
45.167
37.5234
30.6335
22.2188
6.67166
-19.5112
-55.129
-94.6743
-130.365
-156.723
-170.242
-169.065
-158.732
-140.291
-115.172
-87.7515
-61.1828
-38.926
-21.9649
-10.3911
-3.30765
0.714185
2.60419
2.57459
1.69256
-0.0981228
-2.7538
-5.77522
-8.55588
-10.2925
-10.5547
-9.14903
-6.18835
-2.26528