/*--------------------------------*- C++ -*----------------------------------*\
| =========                 |                                                 |
| \\      /  F ield         | OpenFOAM: The Open Source CFD Toolbox           |
|  \\    /   O peration     | Version:  2306                                  |
|   \\  /    A nd           | Website:  www.openfoam.com                      |
|    \\/     M anipulation  |                                                 |
\*---------------------------------------------------------------------------*/
FoamFile
{
    version     2.0;
    format      ascii;
    arch        "LSB;label=32;scalar=64";
    class       surfaceScalarField;
    location    "0.275";
    object      phi;
}
// * * * * * * * * * * * * * * * * * * * * * * * * * * * * * * * * * * * * * //

dimensions      [0 3 -1 0 0 0 0];

oriented        oriented;

internalField   nonuniform List<scalar> 
8520
(
0.00992781
7.21869e-05
0.00978967
0.000138138
0.00962948
0.000160194
0.00946832
0.000161162
0.00930941
0.000158906
0.00914919
0.00016022
0.00898636
0.000162834
0.00882097
0.000165385
0.00865369
0.000167285
0.00848561
0.000168081
0.00831788
0.000167723
0.00815104
0.000166848
0.00798556
0.000165475
0.00782127
0.000164286
0.00765853
0.000162748
0.00749704
0.000161487
0.0073372
0.000159843
0.00717882
0.000158373
0.00702221
0.00015661
0.00686733
0.000154885
0.00671433
0.000153001
0.00656326
0.000151063
0.00641421
0.000149052
0.00626723
0.00014698
0.00612235
0.00014488
0.00597965
0.000142697
0.00583912
0.000140535
0.00570082
0.0001383
0.00556473
0.000136087
0.00543083
0.000133899
0.00529925
0.000131585
0.0051697
0.000129546
0.00504242
0.000127281
0.00491694
0.000125479
0.00479358
0.000123356
0.00467171
0.000121875
0.0045517
0.000120007
0.00443269
0.000119013
0.00431514
0.000117552
0.00419795
0.000117187
0.0040816
0.000116355
0.00396486
0.000116732
0.00384815
0.000116716
0.00373013
0.00011802
0.00361106
0.000119064
0.00348951
0.000121551
0.00336555
0.00012396
0.00323766
0.000127891
0.00310573
0.000131931
0.00296808
0.000137651
0.00282457
0.000143508
0.00267319
0.000151386
0.00251396
0.00015923
0.00234445
0.000169504
0.00216506
0.000179396
0.00197295
0.000192101
0.00176915
0.000203801
0.00155063
0.000218525
0.00131936
0.000231267
0.00107261
0.00024675
0.000813958
0.000258652
0.000542062
0.000271896
0.000265217
0.000276845
-6.42355e-06
0.000271641
-0.000253901
0.000247478
-0.000468069
0.000214168
-0.000623229
0.00015516
-0.000704335
8.11061e-05
-0.000689025
-1.53109e-05
-0.000571701
-0.000117324
-0.000343053
-0.000228648
-5.72976e-05
-0.000285756
0.000186841
-0.000244138
0.000297927
-0.000111086
-1.10248e-05
0.000308952
-0.000528642
0.000517617
-0.000436369
-9.22734e-05
-9.99023e-05
-0.000336466
-5.68149e-05
-4.30875e-05
0.000113745
-0.00017056
0.0100357
3.64592e-05
0.0100799
9.3995e-05
0.0101108
0.000129264
0.0101273
0.000144678
0.0101357
0.000150486
0.0101432
0.000152763
0.0101493
0.000156726
0.0101532
0.000161416
0.0101536
0.000166961
0.0101502
0.000171407
0.0101429
0.00017502
0.0101323
0.000177441
0.0101188
0.000179019
0.0101027
0.000180385
0.0100844
0.000181091
0.0100637
0.000182191
0.0100409
0.000182603
0.0100159
0.000183387
0.00998881
0.000183684
0.00995973
0.000183965
0.00992856
0.00018417
0.00989568
0.000183947
0.00986069
0.000184036
0.00982422
0.000183449
0.00978565
0.000183452
0.00974579
0.000182562
0.00970381
0.000182509
0.00966066
0.000181449
0.00961546
0.000181292
0.00956905
0.000180305
0.00952068
0.000179954
0.00947098
0.000179253
0.00941941
0.00017885
0.00936635
0.000178538
0.00931141
0.000178298
0.00925475
0.00017853
0.00919618
0.000178584
0.00913552
0.000179666
0.00907285
0.000180229
0.00900761
0.000182421
0.00893998
0.000183991
0.00886926
0.000187447
0.00879573
0.000190244
0.00871843
0.000195319
0.0086376
0.000199898
0.00855223
0.00020692
0.00846219
0.000213999
0.00836684
0.000223244
0.00826519
0.000233578
0.00815729
0.000245553
0.00804115
0.000259654
0.00791741
0.000275126
0.00778319
0.000293449
0.00763964
0.000313047
0.00748305
0.000335993
0.00731504
0.000360106
0.00713117
0.000387673
0.00693361
0.000416083
0.00671731
0.000447567
0.00648565
0.000478406
0.00623304
0.000511269
0.0059651
0.00053983
0.00567498
0.000566968
0.00536438
0.000582242
0.00503155
0.00058031
0.00467233
0.000573383
0.00426995
0.000557539
0.00381751
0.000533545
0.00329246
0.000509745
0.0026732
0.000501931
0.00191096
0.0005336
0.00103634
0.000588861
0.000179082
0.000613119
-0.000416124
0.00048412
-0.000567904
0.000460732
-0.000408055
0.000357768
-0.000461201
-3.91268e-05
-0.000602406
-0.000195262
-0.000561622
-8.38717e-05
6.19713e-06
-0.000454074
0.0100142
2.2276e-05
0.0100441
6.40737e-05
0.0100777
9.56347e-05
0.0101075
0.000114956
0.0101312
0.000126718
0.0101524
0.000131625
0.0101728
0.000136263
0.0101951
0.00013909
0.0102177
0.000144424
0.0102409
0.000148152
0.0102629
0.000153093
0.0102843
0.000155964
0.0103043
0.00015909
0.0103237
0.000160967
0.0103422
0.00016261
0.0103601
0.000164259
0.0103775
0.000165196
0.0103941
0.000166829
0.0104102
0.000167563
0.0104252
0.000168936
0.0104397
0.000169664
0.0104531
0.000170578
0.0104657
0.000171405
0.0104773
0.000171849
0.0104879
0.000172904
0.0104976
0.000172824
0.0105059
0.000174245
0.0105136
0.000173726
0.0105194
0.000175481
0.0105249
0.000174844
0.0105281
0.000176747
0.010531
0.00017635
0.0105314
0.000178412
0.0105315
0.000178467
0.0105289
0.000180845
0.0105259
0.00018162
0.01052
0.000184403
0.0105134
0.000186318
0.0105039
0.000189728
0.0104933
0.000193024
0.0104796
0.000197623
0.0104647
0.000202357
0.0104462
0.000208731
0.0104263
0.000215247
0.0104023
0.000223932
0.0103765
0.000232744
0.010346
0.000244504
0.0103132
0.000256032
0.010275
0.000271745
0.0102338
0.000286709
0.0101866
0.000306874
0.0101352
0.000326512
0.0100773
0.000351404
0.0100134
0.000376974
0.00994262
0.000406732
0.0098633
0.00043943
0.00977741
0.000473557
0.00967937
0.000514124
0.00957547
0.000551467
0.00945534
0.000598541
0.00932939
0.000637211
0.00918316
0.000686066
0.00902815
0.000721979
0.00884681
0.000763581
0.00863746
0.000789652
0.00839088
0.000819964
0.00810273
0.000845693
0.00776461
0.000871665
0.00736928
0.000905074
0.00692354
0.000947671
0.00643891
0.00101823
0.00593739
0.00109038
0.0053792
0.00117131
0.0046537
0.00120962
0.00390492
0.00120952
0.00307705
0.00118563
0.00197813
0.0010598
0.000762858
0.00102001
-6.34026e-05
0.000742389
0.000313947
-0.000371152
0.010007
1.52332e-05
0.0100268
4.43242e-05
0.0100519
7.04904e-05
0.010077
8.99274e-05
0.0101003
0.000103393
0.0101223
0.000109658
0.010143
0.000115524
0.0101642
0.000117853
0.0101862
0.000122476
0.0102095
0.000124784
0.010233
0.000129686
0.010257
0.00013192
0.0102803
0.000135825
0.0103039
0.000137327
0.0103268
0.000139738
0.01035
0.00014099
0.0103729
0.000142311
0.010396
0.00014377
0.010419
0.00014457
0.0104418
0.000146152
0.0104646
0.000146783
0.010487
0.00014823
0.0105095
0.000148906
0.0105312
0.000150098
0.0105531
0.000151003
0.0105742
0.000151755
0.0105952
0.000153224
0.0106156
0.000153387
0.0106354
0.000155682
0.0106549
0.000155328
0.0106732
0.00015843
0.0106916
0.000157912
0.0107084
0.000161703
0.0107253
0.000161479
0.0107404
0.000165818
0.0107555
0.000166486
0.0107688
0.000171152
0.0107816
0.000173467
0.010793
0.000178348
0.0108032
0.000182861
0.0108126
0.000188222
0.0108197
0.000195233
0.0108268
0.000201632
0.0108306
0.000211444
0.0108349
0.000219619
0.0108352
0.000232435
0.0108361
0.000243573
0.0108328
0.000259367
0.0108297
0.000274859
0.0108225
0.000293888
0.0108146
0.000314737
0.0108033
0.000337884
0.01079
0.000364647
0.0107739
0.000393107
0.0107547
0.000425973
0.010733
0.000461064
0.010707
0.000499595
0.0106789
0.000542236
0.0106447
0.000585656
0.0106082
0.000635042
0.0105631
0.000682299
0.0105131
0.000736042
0.0104505
0.00078464
0.0103735
0.000840556
0.0102739
0.00088919
0.010148
0.000945897
0.00999495
0.000998751
0.00980759
0.00105902
0.00958415
0.00112851
0.00932864
0.00120318
0.00904634
0.00130054
0.008735
0.00140172
0.00837962
0.00152669
0.00794526
0.00164398
0.00743945
0.00171534
0.00684792
0.00177716
0.0061714
0.00173632
0.0054848
0.00170661
0.00456024
0.00166695
0.00150226
0.00337192
0.0100047
1.05751e-05
0.0100165
3.24863e-05
0.0100353
5.16643e-05
0.0100561
6.91052e-05
0.0100783
8.12732e-05
0.0100987
8.92011e-05
0.0101194
9.48529e-05
0.0101395
9.77273e-05
0.0101607
0.000101294
0.0101825
0.000103022
0.010205
0.000107174
0.0102282
0.000108732
0.0102512
0.000112792
0.0102749
0.000113586
0.0102978
0.000116913
0.0103216
0.000117141
0.0103444
0.000119555
0.0103683
0.000119837
0.0103913
0.000121618
0.0104152
0.000122209
0.0104383
0.00012364
0.0104621
0.000124458
0.0104853
0.000125725
0.0105087
0.000126727
0.0105318
0.000127848
0.0105546
0.000128996
0.0105776
0.000130205
0.0105996
0.000131368
0.0106223
0.000133036
0.0106435
0.00013408
0.0106655
0.000136452
0.0106859
0.000137498
0.0107069
0.00014066
0.0107264
0.000142026
0.0107463
0.00014589
0.0107646
0.000148223
0.0107833
0.000152407
0.0108001
0.000156709
0.0108177
0.000160766
0.0108327
0.000167884
0.010849
0.000171876
0.010862
0.000182239
0.010877
0.000186644
0.0108878
0.000200617
0.0109013
0.000206096
0.01091
0.000223798
0.0109217
0.000231882
0.0109286
0.000252465
0.0109377
0.000265713
0.0109437
0.000287935
0.0109495
0.000308876
0.0109554
0.000332049
0.0109573
0.00036267
0.0109638
0.000386607
0.0109617
0.000428058
0.010969
0.000453794
0.0109637
0.000504941
0.0109704
0.000535482
0.0109629
0.000593132
0.0109666
0.000631367
0.0109559
0.000692992
0.010952
0.000739946
0.0109323
0.000804352
0.0109117
0.000861196
0.010874
0.000926843
0.010824
0.000995929
0.010759
0.00106375
0.0106669
0.00115115
0.0105667
0.00122873
0.010428
0.00134182
0.0102885
0.00144006
0.0101044
0.00158583
0.00991827
0.0017128
0.00969188
0.00187037
0.00941786
0.00198936
0.00908691
0.00210811
0.00864397
0.00217926
0.00809095
0.00225963
0.00742881
0.00232909
0.00231283
0.00661824
0.0100032
7.35133e-06
0.0100117
2.40472e-05
0.0100257
3.75877e-05
0.010043
5.1853e-05
0.0100627
6.16017e-05
0.0100823
6.9599e-05
0.0101025
7.45716e-05
0.0101223
7.79564e-05
0.0101429
8.07423e-05
0.0101636
8.23111e-05
0.0101855
8.52926e-05
0.0102077
8.64863e-05
0.0102304
9.00714e-05
0.0102535
9.04852e-05
0.0102764
9.40752e-05
0.0102999
9.36476e-05
0.0103226
9.67862e-05
0.0103463
9.61522e-05
0.0103692
9.87378e-05
0.010393
9.84273e-05
0.0104161
0.000100565
0.0104397
0.000100772
0.0104629
0.000102541
0.0104863
0.000103353
0.0105096
0.000104592
0.0105324
0.000106169
0.0105556
0.00010694
0.0105778
0.000109247
0.0106009
0.000109946
0.0106223
0.000112683
0.0106449
0.000113828
0.0106656
0.000116805
0.0106874
0.000118837
0.0107075
0.000121964
0.0107281
0.000125273
0.0107476
0.000128647
0.0107667
0.000133357
0.0107858
0.000137602
0.0108032
0.000143375
0.0108216
0.000149473
0.0108374
0.000156084
0.0108549
0.000164744
0.0108691
0.00017241
0.0108855
0.000184237
0.0108984
0.000193166
0.0109133
0.000208955
0.0109254
0.00021975
0.0109385
0.000239409
0.01095
0.000254135
0.0109616
0.000276429
0.0109727
0.000297707
0.010983
0.000321814
0.0109942
0.00035145
0.0110035
0.000377304
0.011015
0.00041655
0.0110242
0.000444539
0.0110358
0.000493407
0.0110456
0.000525689
0.0110569
0.000581751
0.0110659
0.000622383
0.0110763
0.000682613
0.0110809
0.000735392
0.0110873
0.000797877
0.0110828
0.000865782
0.0110804
0.000929197
0.0110601
0.00101628
0.0110412
0.00108261
0.010999
0.00119338
0.0109562
0.00127144
0.0108905
0.00140757
0.01082
0.00151056
0.0107329
0.00167295
0.0106409
0.0018048
0.0105253
0.00198594
0.0103861
0.00212859
0.0101844
0.00230974
0.00991711
0.00244657
0.0095728
0.00260394
0.00917711
0.00272478
0.00282058
0.00866936
0.0100021
5.2033e-06
0.0100092
1.69848e-05
0.0100202
2.66168e-05
0.0100351
3.69543e-05
0.0100523
4.43787e-05
0.0100708
5.108e-05
0.0100904
5.50153e-05
0.0101099
5.84759e-05
0.0101303
6.02662e-05
0.0101503
6.22987e-05
0.0101721
6.35371e-05
0.0101932
6.53431e-05
0.0102162
6.71496e-05
0.0102381
6.85392e-05
0.0102616
7.06288e-05
0.010284
7.12049e-05
0.0103076
7.32132e-05
0.0103303
7.34514e-05
0.0103539
7.50772e-05
0.0103768
7.55658e-05
0.0104006
7.68024e-05
0.0104235
7.78626e-05
0.0104472
7.88149e-05
0.0104701
8.0456e-05
0.0104936
8.10643e-05
0.0105164
8.33975e-05
0.0105396
8.3751e-05
0.0105621
8.674e-05
0.0105848
8.72387e-05
0.010607
9.04772e-05
0.010629
9.18759e-05
0.0106509
9.48499e-05
0.0106718
9.79561e-05
0.0106936
0.0001002
0.0107131
0.000105727
0.0107347
0.000107079
0.0107527
0.000115306
0.010774
0.000116298
0.0107905
0.000126858
0.0108114
0.000128607
0.0108265
0.000141029
0.0108467
0.000144535
0.0108605
0.00015861
0.0108797
0.000165006
0.0108928
0.000180079
0.0109103
0.000191407
0.0109238
0.000206282
0.0109387
0.000224476
0.0109538
0.000239103
0.0109656
0.000264604
0.0109829
0.000280409
0.0109918
0.00031292
0.0110117
0.00033155
0.0110184
0.000370545
0.0110405
0.000394481
0.0110469
0.000438132
0.0110696
0.000470729
0.0110777
0.000517589
0.0110989
0.000560567
0.0111096
0.000611623
0.0111269
0.000665393
0.0111399
0.000722326
0.0111501
0.00078769
0.0111644
0.000851472
0.0111622
0.00093143
0.0111754
0.00100305
0.0111554
0.00110265
0.0111615
0.00118731
0.0111254
0.00130752
0.0111142
0.0014187
0.0110683
0.00155646
0.011038
0.00170332
0.0109805
0.00186224
0.0109303
0.00203619
0.0108351
0.0022238
0.0107335
0.0024113
0.0105731
0.00260695
0.0103716
0.00280549
0.0101214
0.00297502
0.00319142
0.00975052
0.0100016
3.56031e-06
0.0100078
1.08377e-05
0.0100172
1.71871e-05
0.0100302
2.3941e-05
0.0100459
2.87572e-05
0.0100631
3.38248e-05
0.0100821
3.60576e-05
0.0101011
3.94589e-05
0.0101216
3.97646e-05
0.0101413
4.26268e-05
0.010163
4.1841e-05
0.0101834
4.49201e-05
0.0102063
4.41995e-05
0.0102275
4.73312e-05
0.0102513
4.68875e-05
0.0102731
4.94121e-05
0.0102971
4.91802e-05
0.0103193
5.12415e-05
0.0103434
5.10215e-05
0.0103659
5.3031e-05
0.0103899
5.2825e-05
0.0104127
5.50836e-05
0.0104364
5.5034e-05
0.0104594
5.74574e-05
0.0104829
5.76478e-05
0.010506
6.0266e-05
0.0105289
6.08564e-05
0.010552
6.36205e-05
0.0105743
6.49115e-05
0.0105972
6.758e-05
0.010619
7.01142e-05
0.0106414
7.24029e-05
0.0106626
7.68071e-05
0.0106845
7.82722e-05
0.0107048
8.53994e-05
0.0107263
8.55825e-05
0.0107456
9.60295e-05
0.0107666
9.52674e-05
0.0107849
0.000108568
0.0108052
0.000108348
0.0108228
0.000123433
0.0108419
0.00012539
0.0108592
0.000141374
0.0108769
0.000147279
0.0108943
0.000162698
0.0109101
0.000175553
0.0109284
0.000187991
0.010942
0.000210851
0.0109618
0.000219339
0.0109734
0.000253047
0.0109949
0.000258861
0.0110047
0.000303114
0.0110285
0.000307767
0.011037
0.000362067
0.0110629
0.000368539
0.0110716
0.00042945
0.0110979
0.000444421
0.0111094
0.000506123
0.0111333
0.000536686
0.0111494
0.000595452
0.0111684
0.000646429
0.0111898
0.000700886
0.0112023
0.000775231
0.0112257
0.000828035
0.0112328
0.000924369
0.0112505
0.000985347
0.0112534
0.00109969
0.0112611
0.00117961
0.0112551
0.00131358
0.0112556
0.00141817
0.0112348
0.00157726
0.0112278
0.00171033
0.0111928
0.00189725
0.0111652
0.00206375
0.0111099
0.00227909
0.0110464
0.00247483
0.0109421
0.00271123
0.0108248
0.0029228
0.0106257
0.00317419
0.00340825
0.0104088
0.0100016
1.94214e-06
0.010007
5.48759e-06
0.0100158
8.32777e-06
0.0100274
1.23216e-05
0.0100422
1.39904e-05
0.0100585
1.75501e-05
0.0100769
1.76161e-05
0.0100957
2.07327e-05
0.0101159
1.95164e-05
0.0101357
2.28463e-05
0.010157
2.05293e-05
0.0101775
2.44188e-05
0.0101999
2.18369e-05
0.0102213
2.59392e-05
0.0102444
2.37257e-05
0.0102666
2.71937e-05
0.0102901
2.57161e-05
0.0103129
2.84302e-05
0.0103365
2.74612e-05
0.0103595
2.99668e-05
0.0103832
2.91568e-05
0.0104063
3.20189e-05
0.01043
3.12584e-05
0.0104531
3.44025e-05
0.0104767
3.4015e-05
0.0104998
3.71612e-05
0.010523
3.76398e-05
0.0105461
4.05219e-05
0.0105689
4.21555e-05
0.0105918
4.47186e-05
0.0106141
4.77877e-05
0.0106365
4.99597e-05
0.0106584
5.49921e-05
0.0106803
5.62902e-05
0.0107015
6.42363e-05
0.010723
6.4069e-05
0.0107435
7.5561e-05
0.0107644
7.43826e-05
0.0107843
8.86584e-05
0.0108042
8.83737e-05
0.0108239
0.000103795
0.0108428
0.000106521
0.0108622
0.000121885
0.0108801
0.000129383
0.0108995
0.000143357
0.0109165
0.000158547
0.0109362
0.000168291
0.010952
0.000195016
0.0109727
0.000198699
0.0109878
0.000237919
0.0110089
0.000237769
0.0110249
0.000287085
0.0110457
0.00028698
0.0110636
0.000344188
0.0110845
0.00034762
0.0111041
0.000409798
0.0111256
0.000422935
0.0111473
0.000484475
0.0111694
0.000514579
0.011192
0.0005728
0.0112167
0.000621788
0.011237
0.000680523
0.0112654
0.000746906
0.0112824
0.000811012
0.0113098
0.000896942
0.0113264
0.000968789
0.0113465
0.00107958
0.0113624
0.00116374
0.0113746
0.00130135
0.0113838
0.00140894
0.0113888
0.00157226
0.0113876
0.00171158
0.0113767
0.0019081
0.0113644
0.00207604
0.0113265
0.00231701
0.0112944
0.00250694
0.0112133
0.00279233
0.011138
0.00299814
0.0109831
0.0033291
0.00355275
0.0108386
0.0100019
5.46954e-08
0.0100065
8.4049e-07
0.0100154
-5.82373e-07
0.0100262
1.60144e-06
0.0100408
-6.36501e-07
0.0100564
1.97513e-06
0.0100747
-6.94338e-07
0.0100931
2.26095e-06
0.0101132
-5.54631e-07
0.0101332
2.89677e-06
0.0101541
-4.18683e-07
0.0101749
3.63011e-06
0.0101968
-2.35623e-08
0.0102184
4.26234e-06
0.0102412
9.75269e-07
0.0102637
4.65875e-06
0.0102869
2.56806e-06
0.0103101
5.18127e-06
0.0103333
4.25519e-06
0.0103569
6.35966e-06
0.0103803
5.84401e-06
0.0104038
8.50525e-06
0.0104275
7.55211e-06
0.0104506
1.12557e-05
0.0104746
1.00034e-05
0.0104975
1.42709e-05
0.0105213
1.38228e-05
0.0105443
1.75474e-05
0.0105675
1.89511e-05
0.0105906
2.16564e-05
0.0106132
2.51459e-05
0.010636
2.71917e-05
0.0106583
3.26989e-05
0.0106805
3.40536e-05
0.0107024
4.23555e-05
0.0107242
4.22701e-05
0.0107455
5.42779e-05
0.0107668
5.30568e-05
0.0107877
6.78079e-05
0.0108082
6.78574e-05
0.0108289
8.30473e-05
0.0108486
8.68637e-05
0.0108691
0.00010134
0.0108884
0.000110065
0.0109083
0.000123503
0.0109281
0.000138737
0.010947
0.000149418
0.0109677
0.000174246
0.0109859
0.000180533
0.0110079
0.000215911
0.0110256
0.000220095
0.0110495
0.000263205
0.011067
0.000269485
0.0110926
0.000318513
0.0111117
0.000328562
0.0111373
0.000384185
0.0111608
0.000399418
0.0111845
0.000460835
0.0112136
0.000485488
0.0112364
0.000549933
0.0112681
0.000590161
0.0112942
0.0006544
0.0113241
0.000716938
0.0113545
0.00078064
0.011383
0.000868495
0.0114136
0.000938112
0.0114417
0.00105156
0.0114711
0.00113425
0.011494
0.00127845
0.0115233
0.00137969
0.0115373
0.00155829
0.0115579
0.00169092
0.0115631
0.00190294
0.0115654
0.00207368
0.0115528
0.00232967
0.0115287
0.00253098
0.011488
0.00283301
0.0114063
0.00307993
0.0113251
0.00341022
0.00370563
0.0111722
0.0100021
-2.02973e-06
0.0100066
-3.67775e-06
0.0100156
-9.55071e-06
0.0100263
-9.12477e-06
0.010041
-1.53266e-05
0.0100567
-1.37002e-05
0.0100748
-1.88708e-05
0.0100935
-1.64407e-05
0.0101132
-2.0263e-05
0.0101337
-1.75478e-05
0.0101541
-2.07828e-05
0.0101755
-1.78443e-05
0.0101967
-2.1188e-05
0.0102191
-1.81547e-05
0.0102412
-2.11239e-05
0.0102644
-1.85717e-05
0.010287
-2.00108e-05
0.010311
-1.88343e-05
0.0103335
-1.82262e-05
0.0103582
-1.82888e-05
0.0103805
-1.64819e-05
0.0104053
-1.6321e-05
0.010428
-1.50995e-05
0.0104524
-1.31443e-05
0.0104757
-1.32809e-05
0.0104994
-9.48214e-06
0.010523
-9.81441e-06
0.0105465
-5.89107e-06
0.0105699
-4.45871e-06
0.0105933
-1.7385e-06
0.0106163
2.14485e-06
0.0106394
4.07666e-06
0.0106622
9.87241e-06
0.0106846
1.16582e-05
0.0107076
1.94213e-05
0.0107291
2.06847e-05
0.0107519
3.14827e-05
0.010773
3.20249e-05
0.0107954
4.53337e-05
0.0108159
4.73829e-05
0.0108383
6.06768e-05
0.0108582
6.69407e-05
0.0108803
7.92538e-05
0.0109005
8.98675e-05
0.0109214
0.000102595
0.0109431
0.000116995
0.0109625
0.000130083
0.0109859
0.000150842
0.0110049
0.000161477
0.0110289
0.000191995
0.0110495
0.000199471
0.0110734
0.000239315
0.0110961
0.00024675
0.0111208
0.000293825
0.0111457
0.000303683
0.0111718
0.000358033
0.0111989
0.000372329
0.011228
0.00043177
0.0112563
0.000457218
0.0112895
0.000516714
0.0113198
0.000559796
0.0113552
0.000619055
0.0113899
0.000682244
0.0114269
0.000743592
0.0114635
0.000831885
0.0115049
0.000896777
0.0115415
0.00101493
0.0115842
0.00109159
0.0116232
0.00123937
0.0116622
0.00134075
0.0117
0.00152053
0.0117326
0.00165824
0.0117656
0.00186994
0.0117738
0.00206555
0.0118057
0.00229778
0.0117747
0.00256194
0.0117764
0.0028313
0.011712
0.00314433
0.0116488
0.00347344
0.00383003
0.0115244
0.0100021
-4.12199e-06
0.0100072
-8.76209e-06
0.0100161
-1.84871e-05
0.0100279
-2.08679e-05
0.0100426
-3.00935e-05
0.0100593
-3.03993e-05
0.0100772
-3.67743e-05
0.0100968
-3.59652e-05
0.0101159
-3.93964e-05
0.0101371
-3.87827e-05
0.0101568
-4.04355e-05
0.0101792
-4.0228e-05
0.0101997
-4.17738e-05
0.0102229
-4.13027e-05
0.0102448
-4.30032e-05
0.0102682
-4.20453e-05
0.0102911
-4.28229e-05
0.0103149
-4.26894e-05
0.0103378
-4.10875e-05
0.0103624
-4.29212e-05
0.0103848
-3.88385e-05
0.0104101
-4.17042e-05
0.0104323
-3.73074e-05
0.0104577
-3.84767e-05
0.0104805
-3.60646e-05
0.010505
-3.40516e-05
0.0105285
-3.3323e-05
0.0105525
-2.98409e-05
0.0105761
-2.80688e-05
0.0105999
-2.55772e-05
0.0106231
-2.10471e-05
0.0106469
-1.96667e-05
0.0106699
-1.31281e-05
0.0106931
-1.15669e-05
0.0107161
-3.61864e-06
0.0107388
-1.95799e-06
0.0107616
8.66488e-06
0.010784
9.61614e-06
0.0108063
2.30479e-05
0.0108286
2.5047e-05
0.0108507
3.8569e-05
0.0108724
4.5252e-05
0.0108952
5.64735e-05
0.0109159
6.91336e-05
0.0109395
7.90472e-05
0.0109603
9.61776e-05
0.0109836
0.000106843
0.0110061
0.000128328
0.0110285
0.000139087
0.0110534
0.000167068
0.0110752
0.000177626
0.0111034
0.00021112
0.0111241
0.000226091
0.0111575
0.000260392
0.0111764
0.000284813
0.0112154
0.000319039
0.0112351
0.00035261
0.0112769
0.000389964
0.0113012
0.000432915
0.011345
0.000472922
0.0113736
0.000531171
0.0114215
0.000571162
0.0114547
0.000649018
0.0115047
0.000693592
0.0115471
0.000789531
0.0115964
0.000847432
0.0116476
0.000963736
0.0116992
0.00103998
0.0117565
0.00118212
0.0118059
0.00129138
0.0118737
0.00145268
0.0119126
0.00161933
0.0119769
0.00180566
0.0120185
0.00202395
0.0120468
0.00226949
0.0120769
0.00253187
0.0120767
0.00283149
0.0120511
0.00316995
0.0120004
0.00352414
0.00390862
0.0119218
0.0100021
-6.26081e-06
0.0100081
-1.46988e-05
0.0100175
-2.79094e-05
0.0100309
-3.42611e-05
0.0100462
-4.54285e-05
0.0100643
-4.84283e-05
0.0100823
-5.48531e-05
0.0101025
-5.61433e-05
0.0101216
-5.85048e-05
0.010143
-6.01954e-05
0.0101629
-6.03206e-05
0.0101854
-6.26644e-05
0.0102066
-6.30177e-05
0.0102295
-6.41781e-05
0.0102524
-6.59214e-05
0.010275
-6.46298e-05
0.0102994
-6.7202e-05
0.0103217
-6.50388e-05
0.0103466
-6.59516e-05
0.0103695
-6.582e-05
0.0103938
-6.31833e-05
0.0104179
-6.5771e-05
0.0104415
-6.08852e-05
0.0104663
-6.32899e-05
0.0104897
-5.95359e-05
0.0105143
-5.86172e-05
0.0105384
-5.74157e-05
0.0105622
-5.36337e-05
0.0105869
-5.27357e-05
0.0106101
-4.8808e-05
0.0106348
-4.57674e-05
0.0106578
-4.26895e-05
0.0106824
-3.76457e-05
0.0107052
-3.4401e-05
0.0107295
-2.79343e-05
0.0107519
-2.44056e-05
0.0107763
-1.56442e-05
0.0107982
-1.23101e-05
0.0108227
-1.43475e-06
0.010844
3.69168e-06
0.0108688
1.37887e-05
0.0108896
2.44603e-05
0.0109148
3.12325e-05
0.0109355
4.85031e-05
0.0109608
5.3701e-05
0.0109826
7.43645e-05
0.0110068
8.26477e-05
0.0110317
0.000103422
0.011054
0.000116802
0.0110826
0.00013852
0.0111042
0.000156003
0.0111356
0.000179712
0.0111581
0.000203576
0.0111924
0.000226068
0.0112164
0.000260843
0.0112542
0.000281269
0.0112812
0.000325614
0.0113215
0.000349623
0.0113543
0.000400086
0.0113961
0.000431164
0.0114371
0.00049017
0.0114801
0.000528131
0.0115307
0.000598439
0.0115758
0.000648485
0.0116382
0.00072719
0.0116834
0.00080214
0.0117624
0.000884792
0.0118075
0.000994846
0.0118963
0.00109338
0.0119577
0.00122994
0.0120369
0.00137351
0.0121139
0.00154227
0.0121979
0.00172172
0.0122536
0.00196821
0.0123415
0.0021816
0.0123784
0.00249494
0.0124121
0.0027978
0.0124358
0.00314631
0.012386
0.0035739
0.00394814
0.0123465
0.0100024
-8.6892e-06
0.0100095
-2.17638e-05
0.0100204
-3.8789e-05
0.0100357
-4.95677e-05
0.0100525
-6.22832e-05
0.0100718
-6.76968e-05
0.0100907
-7.37163e-05
0.0101111
-7.66137e-05
0.0101306
-7.79637e-05
0.0101521
-8.16731e-05
0.0101724
-8.06002e-05
0.0101954
-8.56691e-05
0.0102168
-8.44753e-05
0.0102404
-8.77584e-05
0.0102633
-8.88754e-05
0.0102864
-8.76362e-05
0.010311
-9.18913e-05
0.0103332
-8.71686e-05
0.010359
-9.17519e-05
0.0103811
-8.79631e-05
0.0104068
-8.88831e-05
0.01043
-8.89544e-05
0.0104548
-8.5718e-05
0.0104792
-8.7643e-05
0.0105033
-8.36423e-05
0.0105283
-8.35836e-05
0.0105522
-8.13228e-05
0.0105771
-7.86021e-05
0.0106012
-7.68283e-05
0.0106257
-7.33154e-05
0.0106502
-7.02759e-05
0.0106741
-6.65537e-05
0.0106989
-6.24596e-05
0.0107224
-5.78652e-05
0.0107471
-5.26128e-05
0.0107705
-4.78112e-05
0.0107948
-3.99426e-05
0.0108183
-3.5887e-05
0.010842
-2.50536e-05
0.0108663
-2.06568e-05
0.0108886
-8.51448e-06
0.0109146
-1.4849e-06
0.0109356
1.01838e-05
0.0109626
2.14682e-05
0.010984
3.2393e-05
0.0110109
4.7389e-05
0.0110339
5.9694e-05
0.0110607
7.66094e-05
0.0110858
9.16485e-05
0.0111122
0.000112132
0.0111413
0.000126933
0.0111666
0.000154407
0.0112003
0.000169933
0.0112269
0.000199438
0.0112625
0.000225243
0.0112939
0.000249828
0.0113322
0.000287356
0.0113662
0.000315654
0.0114133
0.000352903
0.0114464
0.000398075
0.0115047
0.000431933
0.0115406
0.000492218
0.0116071
0.000531891
0.0116505
0.000605129
0.0117255
0.000652175
0.0117798
0.000747824
0.0118632
0.000801447
0.0119305
0.000927513
0.0120289
0.000994973
0.012102
0.0011568
0.0122187
0.00125689
0.0123079
0.00145302
0.0124145
0.00161512
0.0125332
0.00184951
0.012614
0.00210083
0.0127318
0.00237709
0.0127785
0.00275119
0.012848
0.00307679
0.012852
0.00356989
0.00401105
0.0127891
0.0100031
-1.17932e-05
0.0100119
-3.05271e-05
0.0100257
-5.25872e-05
0.0100434
-6.72779e-05
0.0100627
-8.15612e-05
0.0100829
-8.79844e-05
0.0101028
-9.35749e-05
0.0101234
-9.72159e-05
0.0101433
-9.79074e-05
0.0101652
-0.000103565
0.010186
-0.000101388
0.0102101
-0.000109742
0.0102314
-0.000105766
0.0102565
-0.000112895
0.0102786
-0.000110923
0.0103033
-0.000112368
0.0103268
-0.000115368
0.0103505
-0.000110888
0.0103754
-0.000116662
0.0103987
-0.000111219
0.0104242
-0.000114369
0.0104478
-0.000112557
0.0104731
-0.000111031
0.0104973
-0.000111899
0.0105222
-0.000108516
0.0105472
-0.000108628
0.0105714
-0.000105461
0.0105974
-0.00010463
0.0106207
-0.000100108
0.0106472
-9.98709e-05
0.0106704
-9.34296e-05
0.0106965
-9.26911e-05
0.0107201
-8.59785e-05
0.0107459
-8.37354e-05
0.0107689
-7.5565e-05
0.0107957
-7.46229e-05
0.0108171
-6.13483e-05
0.0108453
-6.40464e-05
0.0108653
-4.51488e-05
0.0108944
-4.97455e-05
0.010914
-2.81e-05
0.0109433
-3.07268e-05
0.0109638
-1.03768e-05
0.0109916
-6.33253e-06
0.0110153
8.74675e-06
0.0110412
2.14837e-05
0.0110674
3.34398e-05
0.0110939
5.01493e-05
0.0111205
6.50208e-05
0.0111498
8.28577e-05
0.0111771
9.9621e-05
0.0112084
0.000123096
0.0112389
0.000139455
0.0112722
0.000166131
0.0113048
0.000192596
0.0113445
0.000210217
0.0113775
0.000254357
0.0114241
0.000269058
0.0114635
0.000313505
0.0115105
0.000351046
0.0115642
0.000378184
0.0116114
0.000445008
0.0116765
0.000466847
0.0117348
0.000546788
0.0118055
0.000581483
0.0118805
0.000672854
0.011961
0.000720893
0.0120571
0.000831453
0.012141
0.000911058
0.0122799
0.00101791
0.0123536
0.00118317
0.012535
0.00127166
0.0126247
0.00152541
0.0128036
0.00167057
0.0129301
0.0019744
0.0130716
0.00223556
0.0132148
0.002608
0.0132859
0.00300562
0.0133906
0.00346521
0.00406151
0.0133402
0.0100044
-1.61993e-05
0.0100164
-4.24951e-05
0.0100352
-7.14621e-05
0.0100562
-8.81888e-05
0.0100784
-0.00010384
0.0100989
-0.000108487
0.0101201
-0.000114696
0.0101402
-0.000117309
0.0101619
-0.000119622
0.0101837
-0.000125407
0.0102065
-0.000124192
0.0102303
-0.000133569
0.0102532
-0.000128633
0.0102783
-0.000137943
0.0103008
-0.000133456
0.0103261
-0.000137671
0.010349
-0.000138307
0.0103741
-0.000135967
0.010398
-0.000140537
0.0104228
-0.000135985
0.0104476
-0.000139177
0.0104718
-0.00013684
0.0104977
-0.000136897
0.0105212
-0.000135369
0.010548
-0.00013535
0.0105712
-0.000131791
0.0105978
-0.000132126
0.0106219
-0.000128729
0.0106474
-0.000125582
0.0106724
-0.000124837
0.0106977
-0.000118764
0.0107217
-0.000116646
0.0107485
-0.000112804
0.0107707
-0.000105915
0.0107985
-0.00010337
0.0108202
-9.63517e-05
0.0108477
-8.88263e-05
0.0108697
-8.60533e-05
0.0108969
-7.2352e-05
0.0109192
-7.20265e-05
0.0109459
-5.47911e-05
0.0109694
-5.42604e-05
0.0109949
-3.58934e-05
0.0110207
-3.20693e-05
0.011045
-1.56187e-05
0.0110735
-7.0091e-06
0.0110964
1.05102e-05
0.011129
1.75524e-05
0.01115
4.4051e-05
0.0111871
4.57578e-05
0.0112092
7.75456e-05
0.0112466
8.57153e-05
0.0112762
0.000109815
0.01131
0.000132305
0.0113486
0.000154057
0.0113844
0.000174427
0.0114255
0.000213257
0.0114708
0.000223706
0.0115153
0.000269049
0.011565
0.000301327
0.0116241
0.000319104
0.011675
0.000394119
0.0117418
0.000400005
0.0118193
0.000469288
0.0118696
0.000531218
0.0119942
0.000548218
0.0120386
0.000676493
0.0121814
0.000688615
0.0122682
0.000824279
0.0124042
0.000881929
0.0125438
0.00104353
0.0126953
0.00112017
0.0128786
0.00134209
0.0130391
0.00151013
0.013288
0.00172553
0.0134249
0.00209866
0.0136684
0.00236442
0.0138085
0.00286553
0.0139758
0.00329792
0.00402065
0.0140167
0.010007
-2.3175e-05
0.0100268
-6.2303e-05
0.010052
-9.67008e-05
0.0100771
-0.000113232
0.0101006
-0.000127333
0.0101226
-0.000130512
0.0101438
-0.000135903
0.0101649
-0.000138437
0.0101878
-0.000142455
0.0102107
-0.000148346
0.0102354
-0.000148876
0.010259
-0.000157187
0.0102835
-0.000153147
0.0103073
-0.000161736
0.0103308
-0.000156992
0.0103553
-0.000162151
0.010378
-0.00016097
0.0104035
-0.00016151
0.0104256
-0.000162582
0.0104518
-0.000162219
0.0104738
-0.000161199
0.0104996
-0.000162646
0.0105227
-0.00015995
0.0105469
-0.00015957
0.0105714
-0.000159912
0.0105942
-0.000154528
0.0106192
-0.000157161
0.0106418
-0.000151326
0.010666
-0.000149749
0.010689
-0.000147806
0.0107126
-0.00014245
0.0107348
-0.000138784
0.0107592
-0.000137228
0.0107799
-0.000126662
0.0108046
-0.00012801
0.0108255
-0.000117266
0.0108486
-0.000111877
0.0108715
-0.000108964