/*--------------------------------*- C++ -*----------------------------------*\
| =========                 |                                                 |
| \\      /  F ield         | OpenFOAM: The Open Source CFD Toolbox           |
|  \\    /   O peration     | Version:  2306                                  |
|   \\  /    A nd           | Website:  www.openfoam.com                      |
|    \\/     M anipulation  |                                                 |
\*---------------------------------------------------------------------------*/
FoamFile
{
    version     2.0;
    format      ascii;
    arch        "LSB;label=32;scalar=64";
    class       volVectorField;
    location    "0.275";
    object      U;
}
// * * * * * * * * * * * * * * * * * * * * * * * * * * * * * * * * * * * * * //

dimensions      [0 1 -1 0 0 0 0];

internalField   nonuniform List<vector> 
4400
(
(9.90174 0.0455096 0)
(9.80632 0.0986915 0)
(9.70006 0.120989 0)
(9.57028 0.125765 0)
(9.41813 0.124516 0)
(9.25227 0.123431 0)
(9.08051 0.12416 0)
(8.90833 0.125674 0)
(8.73717 0.126991 0)
(8.56789 0.127411 0)
(8.40002 0.126872 0)
(8.23339 0.125554 0)
(8.06792 0.123762 0)
(7.90322 0.121747 0)
(7.74 0.119657 0)
(7.57753 0.117535 0)
(7.41706 0.115437 0)
(7.25742 0.113236 0)
(7.10024 0.111087 0)
(6.94399 0.108739 0)
(6.79043 0.106493 0)
(6.63791 0.104003 0)
(6.48826 0.10165 0)
(6.33978 0.0990985 0)
(6.19426 0.0966704 0)
(6.05001 0.0941118 0)
(5.90881 0.0916345 0)
(5.76891 0.0891132 0)
(5.63221 0.0866496 0)
(5.49665 0.0842043 0)
(5.36455 0.0818141 0)
(5.23321 0.0794863 0)
(5.10569 0.0772188 0)
(4.97832 0.0750541 0)
(4.85507 0.0729554 0)
(4.73123 0.0710027 0)
(4.61174 0.0691614 0)
(4.49074 0.0675446 0)
(4.37424 0.0660801 0)
(4.25511 0.0649251 0)
(4.14047 0.0640074 0)
(4.0219 0.0634981 0)
(3.9076 0.0633095 0)
(3.78802 0.0635547 0)
(3.67215 0.0642393 0)
(3.54953 0.0653495 0)
(3.42966 0.0670856 0)
(3.30139 0.0691551 0)
(3.17455 0.072097 0)
(3.03744 0.0752352 0)
(2.90012 0.0795194 0)
(2.75035 0.0838423 0)
(2.59853 0.0895368 0)
(2.43173 0.0950436 0)
(2.26104 0.102066 0)
(2.07254 0.108528 0)
(1.87858 0.116448 0)
(1.66403 0.123141 0)
(1.44314 0.130874 0)
(1.19958 0.136189 0)
(0.950187 0.141419 0)
(0.677595 0.141809 0)
(0.400954 0.13641 0)
(0.119453 0.105848 0)
(-0.134072 0.0526356 0)
(-0.385726 -0.0293945 0)
(-0.567085 -0.120007 0)
(-0.69101 -0.229502 0)
(-0.706698 -0.351872 0)
(-0.649776 -0.490393 0)
(-0.456803 -0.615684 0)
(-0.199374 -0.705129 0)
(0.091944 -0.576969 0)
(0.250116 -0.23176 0)
(0.361144 0.462858 0)
(-0.391347 0.910349 0)
(-0.610824 0.321345 0)
(-0.23947 -0.0727417 0)
(0.0173108 -0.0934216 0)
(-0.133984 -0.260525 0)
(10.0002 0.0612479 0)
(10.0319 0.137325 0)
(10.0697 0.173744 0)
(10.105 0.184814 0)
(10.1326 0.186275 0)
(10.15 0.186152 0)
(10.159 0.188334 0)
(10.1608 0.191952 0)
(10.1594 0.195915 0)
(10.1534 0.199164 0)
(10.1471 0.201045 0)
(10.1362 0.202126 0)
(10.1259 0.202017 0)
(10.1098 0.201982 0)
(10.0949 0.201138 0)
(10.0736 0.200892 0)
(10.054 0.199908 0)
(10.028 0.199518 0)
(10.0039 0.198442 0)
(9.97379 0.197775 0)
(9.94535 0.196533 0)
(9.91159 0.19556 0)
(9.87913 0.19412 0)
(9.84195 0.192894 0)
(9.80576 0.191344 0)
(9.76516 0.189871 0)
(9.72564 0.188283 0)
(9.6815 0.186639 0)
(9.63909 0.185006 0)
(9.59116 0.183376 0)
(9.5462 0.181639 0)
(9.49435 0.18018 0)
(9.44692 0.178388 0)
(9.39102 0.177188 0)
(9.34101 0.175465 0)
(9.28086 0.174656 0)
(9.22804 0.173106 0)
(9.16329 0.172913 0)
(9.10721 0.171712 0)
(9.03739 0.172308 0)
(8.97724 0.171772 0)
(8.90174 0.173325 0)
(8.83637 0.173837 0)
(8.75433 0.176676 0)
(8.68228 0.17858 0)
(8.59253 0.183122 0)
(8.51186 0.186807 0)
(8.41281 0.193495 0)
(8.32112 0.199347 0)
(8.21052 0.208742 0)
(8.10496 0.21705 0)
(7.97986 0.229785 0)
(7.85693 0.240845 0)
(7.71364 0.257436 0)
(7.56915 0.271458 0)
(7.40312 0.292194 0)
(7.23223 0.309076 0)
(7.03818 0.333742 0)
(6.83546 0.352779 0)
(6.60764 0.380057 0)
(6.36741 0.399187 0)
(6.10016 0.425641 0)
(5.81682 0.439661 0)
(5.50621 0.457044 0)
(5.18137 0.454658 0)
(4.83804 0.452419 0)
(4.45628 0.420185 0)
(4.05317 0.388104 0)
(3.57495 0.327125 0)
(3.05829 0.285145 0)
(2.37097 0.216957 0)
(1.56195 0.215017 0)
(0.520652 0.154669 0)
(-0.207745 0.0160106 0)
(-0.60319 0.0966678 0)
(-0.567113 0.0300399 0)
(-0.259998 -0.553003 0)
(-0.610081 -0.680319 0)
(-0.624387 -0.00655163 0)
(-0.525314 0.522771 0)
(9.99956 0.0267 0)
(10.0173 0.0697112 0)
(10.0423 0.100023 0)
(10.0753 0.117341 0)
(10.1078 0.127066 0)
(10.1398 0.131617 0)
(10.1668 0.136171 0)
(10.1913 0.140115 0)
(10.2127 0.145586 0)
(10.2331 0.150201 0)
(10.2534 0.155059 0)
(10.2729 0.158633 0)
(10.2936 0.161727 0)
(10.3126 0.164161 0)
(10.3328 0.166007 0)
(10.3507 0.167936 0)
(10.3692 0.169357 0)
(10.386 0.170891 0)
(10.4023 0.172357 0)
(10.4182 0.173324 0)
(10.4321 0.174907 0)
(10.4472 0.17527 0)
(10.4584 0.176849 0)
(10.4727 0.176788 0)
(10.4813 0.178293 0)
(10.4941 0.177952 0)
(10.5004 0.179337 0)
(10.511 0.178928 0)
(10.5152 0.180095 0)
(10.5233 0.179912 0)
(10.5254 0.180772 0)
(10.5305 0.180973 0)
(10.5303 0.181713 0)
(10.5323 0.18232 0)
(10.5295 0.183214 0)
(10.5281 0.184402 0)
(10.5224 0.185562 0)
(10.5173 0.187702 0)
(10.5085 0.189312 0)
(10.499 0.192647 0)
(10.4868 0.195176 0)
(10.4722 0.199891 0)
(10.4564 0.203905 0)
(10.4359 0.210362 0)
(10.416 0.216518 0)
(10.3887 0.224956 0)
(10.3638 0.234322 0)
(10.3288 0.244806 0)
(10.2977 0.258504 0)
(10.2536 0.271449 0)
(10.215 0.29019 0)
(10.1602 0.306471 0)
(10.1126 0.330817 0)
(10.0448 0.351194 0)
(9.9862 0.381715 0)
(9.90246 0.406726 0)
(9.83051 0.443596 0)
(9.72752 0.473199 0)
(9.6383 0.515975 0)
(9.51285 0.548469 0)
(9.4002 0.595043 0)
(9.24861 0.626474 0)
(9.10356 0.670723 0)
(8.92002 0.693789 0)
(8.72973 0.725075 0)
(8.50419 0.730671 0)
(8.24624 0.74246 0)
(7.95002 0.732036 0)
(7.60104 0.741166 0)
(7.20722 0.748439 0)
(6.74445 0.80385 0)
(6.2212 0.876507 0)
(5.64521 0.994186 0)
(4.97125 0.997544 0)
(4.36509 0.909479 0)
(3.37728 0.778412 0)
(2.70612 0.51055 0)
(1.41909 0.377979 0)
(0.0344595 -0.121923 0)
(-0.190982 -0.520105 0)
(9.99895 0.0188444 0)
(10.0114 0.0524197 0)
(10.0265 0.0809848 0)
(10.0523 0.10077 0)
(10.0766 0.115329 0)
(10.1064 0.122479 0)
(10.1305 0.129133 0)
(10.1574 0.131856 0)
(10.1783 0.13704 0)
(10.2024 0.139644 0)
(10.2225 0.144605 0)
(10.2462 0.147069 0)
(10.2675 0.150681 0)
(10.2916 0.152591 0)
(10.314 0.154526 0)
(10.3382 0.156288 0)
(10.3607 0.157035 0)
(10.3849 0.158932 0)
(10.407 0.15917 0)
(10.431 0.16106 0)
(10.4526 0.16121 0)
(10.4765 0.162793 0)
(10.4973 0.163131 0)
(10.5211 0.164192 0)
(10.541 0.165024 0)
(10.5646 0.165295 0)
(10.5834 0.166934 0)
(10.6063 0.166378 0)
(10.6244 0.16885 0)
(10.6458 0.16783 0)
(10.6633 0.170831 0)
(10.6826 0.169867 0)
(10.6999 0.173234 0)
(10.7163 0.172684 0)
(10.7337 0.176467 0)
(10.7465 0.176669 0)
(10.7638 0.180912 0)
(10.773 0.182298 0)
(10.7898 0.187235 0)
(10.7954 0.18998 0)
(10.811 0.196314 0)
(10.813 0.200426 0)
(10.8268 0.208896 0)
(10.8254 0.214773 0)
(10.8367 0.225706 0)
(10.8318 0.234159 0)
(10.8401 0.247911 0)
(10.8311 0.259785 0)
(10.8364 0.276841 0)
(10.8228 0.293206 0)
(10.8243 0.313752 0)
(10.8062 0.33619 0)
(10.8027 0.360216 0)
(10.78 0.39037 0)
(10.7705 0.417629 0)
(10.7424 0.457327 0)
(10.7263 0.486744 0)
(10.6909 0.53765 0)
(10.6677 0.567722 0)
(10.621 0.629135 0)
(10.5901 0.658943 0)
(10.5252 0.725872 0)
(10.4834 0.75478 0)
(10.3909 0.818256 0)
(10.3275 0.845435 0)
(10.1934 0.897966 0)
(10.0917 0.927929 0)
(9.89733 0.977492 0)
(9.74266 1.02468 0)
(9.46976 1.09347 0)
(9.25329 1.1772 0)
(8.8856 1.27972 0)
(8.60248 1.38268 0)
(8.11779 1.46433 0)
(7.73243 1.49979 0)
(7.12234 1.52143 0)
(6.54094 1.49526 0)
(5.85162 1.48498 0)
(4.95327 1.47592 0)
(4.07636 1.19853 0)
(9.99891 0.0132123 0)
(10.0084 0.0384316 0)
(10.0183 0.0605183 0)
(10.0385 0.0776971 0)
(10.0569 0.0908692 0)
(10.0831 0.0985648 0)
(10.1042 0.104992 0)
(10.1303 0.107727 0)
(10.1506 0.112017 0)
(10.1748 0.113736 0)
(10.1949 0.118062 0)
(10.218 0.119642 0)
(10.2396 0.123575 0)
(10.2623 0.124721 0)
(10.2861 0.12761 0)
(10.3082 0.128522 0)
(10.3335 0.130284 0)
(10.3547 0.131358 0)
(10.3812 0.132448 0)
(10.4014 0.133727 0)
(10.4287 0.13456 0)
(10.4479 0.135873 0)
(10.4759 0.136676 0)
(10.4943 0.137971 0)
(10.5227 0.138842 0)
(10.5402 0.139954 0)
(10.5688 0.141252 0)
(10.5854 0.141898 0)
(10.6139 0.144099 0)
(10.6295 0.144094 0)
(10.6576 0.147413 0)
(10.6723 0.146973 0)
(10.6995 0.15131 0)
(10.7133 0.151006 0)
(10.7395 0.156011 0)
(10.752 0.156696 0)
(10.7772 0.161855 0)
(10.7884 0.164576 0)
(10.812 0.169411 0)
(10.8222 0.175161 0)
(10.8437 0.179517 0)
(10.8529 0.189004 0)
(10.8721 0.193222 0)
(10.8803 0.206698 0)
(10.8967 0.211834 0)
(10.9047 0.228875 0)
(10.917 0.236853 0)
(10.9254 0.256575 0)
(10.9337 0.269601 0)
(10.942 0.291466 0)
(10.9468 0.311256 0)
(10.9543 0.335432 0)
(10.957 0.363184 0)
(10.9617 0.390335 0)
(10.9656 0.426778 0)
(10.9633 0.457598 0)
(10.9727 0.503249 0)
(10.9596 0.537659 0)
(10.9764 0.593052 0)
(10.9501 0.629884 0)
(10.9736 0.693994 0)
(10.9301 0.733433 0)
(10.9584 0.800783 0)
(10.8897 0.845936 0)
(10.9172 0.91116 0)
(10.8134 0.964921 0)
(10.8291 1.03439 0)
(10.6825 1.09895 0)
(10.6703 1.18972 0)
(10.4781 1.27021 0)
(10.4215 1.39262 0)
(10.1814 1.49776 0)
(10.068 1.63297 0)
(9.7715 1.7562 0)
(9.57821 1.85884 0)
(9.20706 1.97214 0)
(8.88049 2.01408 0)
(8.38865 2.0729 0)
(7.83688 2.03975 0)
(7.10198 1.95041 0)
(9.99972 0.00900679 0)
(10.0056 0.0286883 0)
(10.0148 0.0442649 0)
(10.0292 0.059271 0)
(10.0463 0.069635 0)
(10.0666 0.0780045 0)
(10.0882 0.0834052 0)
(10.11 0.0870379 0)
(10.1326 0.0903952 0)
(10.1536 0.0922274 0)
(10.1765 0.0957146 0)
(10.1965 0.096846 0)
(10.2207 0.100718 0)
(10.2403 0.101087 0)
(10.2662 0.104841 0)
(10.2855 0.104561 0)
(10.3128 0.107699 0)
(10.3318 0.107352 0)
(10.36 0.109829 0)
(10.3783 0.109789 0)
(10.4072 0.111789 0)
(10.4248 0.112105 0)
(10.4543 0.113841 0)
(10.4713 0.114544 0)
(10.5009 0.115961 0)
(10.5177 0.117131 0)
(10.5468 0.11831 0)
(10.5637 0.119953 0)
(10.5918 0.121145 0)
(10.609 0.123187 0)
(10.6355 0.124639 0)
(10.6535 0.127136 0)
(10.6774 0.129096 0)
(10.6967 0.132124 0)
(10.7179 0.134784 0)
(10.7377 0.138748 0)
(10.7571 0.141852 0)
(10.7761 0.147728 0)
(10.7949 0.150786 0)
(10.8115 0.159427 0)
(10.8311 0.162643 0)
(10.8439 0.174266 0)
(10.8655 0.178239 0)
(10.8732 0.193224 0)
(10.8976 0.198346 0)
(10.8998 0.217136 0)
(10.9272 0.224766 0)
(10.9239 0.246234 0)
(10.9547 0.259579 0)
(10.9452 0.281532 0)
(10.9806 0.304141 0)
(10.9648 0.324892 0)
(11.0045 0.359593 0)
(10.9838 0.378219 0)
(11.0269 0.426555 0)
(11.0025 0.444647 0)
(11.0488 0.503602 0)
(11.021 0.527699 0)
(11.0699 0.589744 0)
(11.0392 0.626994 0)
(11.0884 0.687231 0)
(11.0547 0.738571 0)
(11.0998 0.798557 0)
(11.0613 0.861696 0)
(11.0968 0.92407 0)
(11.0487 1.00329 0)
(11.069 1.06746 0)
(11.0047 1.17605 0)
(11.0027 1.241 0)
(10.9176 1.39075 0)
(10.885 1.46481 0)
(10.7788 1.6473 0)
(10.7031 1.74947 0)
(10.5833 1.9306 0)
(10.4318 2.06701 0)
(10.3012 2.20514 0)
(10.0193 2.35001 0)
(9.82558 2.42801 0)
(9.37346 2.53929 0)
(8.99031 2.56598 0)
(10.0015 0.00629868 0)
(10.0022 0.0208215 0)
(10.0144 0.0320356 0)
(10.0217 0.0437318 0)
(10.0415 0.0518797 0)
(10.0543 0.0591926 0)
(10.0789 0.063894 0)
(10.0948 0.0674375 0)
(10.1209 0.0702118 0)
(10.1379 0.07196 0)
(10.1637 0.0745881 0)
(10.1813 0.0755223 0)
(10.207 0.0787237 0)
(10.2252 0.0788496 0)
(10.2516 0.0824683 0)
(10.2704 0.0817394 0)
(10.2972 0.0852639 0)
(10.3166 0.0842348 0)
(10.3437 0.0873284 0)
(10.3632 0.0865626 0)
(10.3904 0.0890976 0)
(10.41 0.0890006 0)
(10.437 0.0909205 0)
(10.457 0.0917943 0)
(10.4829 0.0928124 0)
(10.5041 0.0949265 0)
(10.5281 0.0950978 0)
(10.5509 0.0983108 0)
(10.5726 0.0982339 0)
(10.5969 0.10194 0)
(10.6163 0.102446 0)
(10.6417 0.106214 0)
(10.659 0.107908 0)
(10.6851 0.111524 0)
(10.7006 0.114952 0)
(10.7264 0.118241 0)
(10.7413 0.123915 0)
(10.7653 0.127109 0)
(10.781 0.134921 0)
(10.8015 0.139001 0)
(10.8199 0.148495 0)
(10.8341 0.1545 0)
(10.8586 0.165601 0)
(10.8629 0.174263 0)
(10.8966 0.186982 0)
(10.8891 0.199503 0)
(10.933 0.213666 0)
(10.9139 0.230991 0)
(10.967 0.247492 0)
(10.9384 0.269414 0)
(10.998 0.289913 0)
(10.9648 0.316668 0)
(11.025 0.341783 0)
(10.9948 0.374274 0)
(11.0488 0.404992 0)
(11.0276 0.44258 0)
(11.0718 0.481744 0)
(11.0625 0.522362 0)
(11.0948 0.572269 0)
(11.0983 0.616352 0)
(11.118 0.674698 0)
(11.1316 0.728407 0)
(11.1395 0.788527 0)
(11.1589 0.861542 0)
(11.1544 0.919023 0)
(11.1731 1.01734 0)
(11.1585 1.07868 0)
(11.1646 1.19862 0)
(11.1411 1.28295 0)
(11.134 1.41514 0)
(11.0833 1.53941 0)
(11.0824 1.68463 0)
(10.9811 1.84033 0)
(10.9881 2.01503 0)
(10.8447 2.16583 0)
(10.8056 2.37752 0)
(10.6427 2.50118 0)
(10.4892 2.7169 0)
(10.2677 2.83601 0)
(9.97128 3.01412 0)
(10.0035 0.00448702 0)
(9.99942 0.0140165 0)
(10.0151 0.0219902 0)
(10.0164 0.0301642 0)
(10.0394 0.0359816 0)
(10.0458 0.0417299 0)
(10.0736 0.0448891 0)
(10.0841 0.0484546 0)
(10.1134 0.0496565 0)
(10.1267 0.0523581 0)
(10.1552 0.0526919 0)
(10.1703 0.0552517 0)
(10.1978 0.0555809 0)
(10.2146 0.057914 0)
(10.2417 0.0585027 0)
(10.2597 0.0602665 0)
(10.2866 0.0609245 0)
(10.3061 0.0624467 0)
(10.3324 0.0628233 0)
(10.353 0.0645498 0)
(10.3788 0.0645894 0)
(10.3999 0.0667253 0)
(10.4257 0.0667336 0)
(10.4466 0.069092 0)
(10.4722 0.069258 0)
(10.4932 0.0718281 0)
(10.5181 0.07228 0)
(10.5397 0.0751171 0)
(10.5634 0.0760705 0)
(10.5854 0.0789119 0)
(10.608 0.0810777 0)
(10.6303 0.0832837 0)
(10.6514 0.0877514 0)
(10.6742 0.0885255 0)
(10.6939 0.09626 0)
(10.7161 0.0953413 0)
(10.736 0.106523 0)
(10.7552 0.10467 0)
(10.778 0.118705 0)
(10.7913 0.11718 0)
(10.82 0.133462 0)
(10.8241 0.133401 0)
(10.8622 0.151423 0)
(10.8536 0.154475 0)
(10.9037 0.172798 0)
(10.8818 0.18194 0)
(10.943 0.198271 0)
(10.9104 0.216572 0)
(10.9796 0.229776 0)
(10.9397 0.258414 0)
(11.014 0.269701 0)
(10.9714 0.307787 0)
(11.045 0.320193 0)
(11.0079 0.365356 0)
(11.0726 0.38324 0)
(11.0489 0.432203 0)
(11.0996 0.459476 0)
(11.0924 0.51142 0)
(11.1278 0.548271 0)
(11.137 0.605203 0)
(11.1578 0.652805 0)
(11.1801 0.712546 0)
(11.1893 0.779475 0)
(11.2191 0.834344 0)
(11.2162 0.933658 0)
(11.2562 0.978502 0)
(11.2278 1.11649 0)
(11.2872 1.16348 0)
(11.2244 1.32548 0)
(11.2933 1.40887 0)
(11.2151 1.57159 0)
(11.2587 1.71058 0)
(11.1925 1.88319 0)
(11.1888 2.04846 0)
(11.1243 2.26408 0)
(11.0837 2.42386 0)
(10.9823 2.66785 0)
(10.8913 2.85802 0)
(10.7367 3.06285 0)
(10.5349 3.31731 0)
(10.0046 0.00286073 0)
(9.99804 0.00814744 0)
(10.0155 0.0128905 0)
(10.0136 0.0179723 0)
(10.0381 0.0211576 0)
(10.041 0.0252584 0)
(10.0704 0.0264652 0)
(10.0776 0.02978 0)
(10.1088 0.0293364 0)
(10.1195 0.0327119 0)
(10.1497 0.0310748 0)
(10.1635 0.034867 0)
(10.1917 0.0328515 0)
(10.2083 0.0367824 0)
(10.2349 0.0349695 0)
(10.2537 0.0384321 0)
(10.2794 0.0370779 0)
(10.3001 0.0400064 0)
(10.3249 0.0390023 0)
(10.3473 0.0415927 0)
(10.3711 0.0409579 0)
(10.3947 0.0434399 0)
(10.4179 0.0432903 0)
(10.4415 0.0456719 0)
(10.4648 0.045994 0)
(10.4879 0.0484677 0)
(10.5117 0.0493319 0)
(10.5341 0.0518788 0)
(10.5579 0.0535981 0)
(10.5796 0.0559454 0)
(10.6035 0.0589896 0)
(10.6244 0.0610766 0)
(10.6484 0.0656988 0)
(10.6678 0.0674599 0)
(10.693 0.0743156 0)
(10.7092 0.0752369 0)
(10.7374 0.0851635 0)
(10.7486 0.0852812 0)
(10.7812 0.0979152 0)
(10.7861 0.0989576 0)
(10.8242 0.112738 0)
(10.8215 0.116773 0)
(10.8673 0.130493 0)
(10.8541 0.139418 0)
(10.9105 0.151575 0)
(10.8855 0.168437 0)
(10.9518 0.176513 0)
(10.9183 0.204259 0)
(10.9901 0.207678 0)
(10.9532 0.246634 0)
(11.0266 0.246762 0)
(10.9906 0.297452 0)
(11.0612 0.293698 0)
(11.033 0.358452 0)
(11.0924 0.351547 0)
(11.0821 0.427161 0)
(11.1215 0.426533 0)
(11.1367 0.501351 0)
(11.1505 0.521764 0)
(11.1961 0.584149 0)
(11.1793 0.636316 0)
(11.2592 0.683316 0)
(11.208 0.767118 0)
(11.3224 0.811324 0)
(11.2387 0.910932 0)
(11.376 0.979107 0)
(11.2771 1.07803 0)
(11.408 1.18301 0)
(11.3199 1.29545 0)
(11.422 1.41896 0)
(11.3465 1.57685 0)
(11.4249 1.70878 0)
(11.3446 1.90818 0)
(11.4022 2.07971 0)
(11.3106 2.28422 0)
(11.3324 2.51429 0)
(11.2259 2.7364 0)
(11.1861 2.96992 0)
(11.0621 3.26655 0)
(10.9099 3.46806 0)
(10.0046 0.00116285 0)
(9.99831 0.0030232 0)
(10.0149 0.00402142 0)
(10.0137 0.00677769 0)
(10.0364 0.00672449 0)
(10.0403 0.00955673 0)
(10.0675 0.00841248 0)
(10.0763 0.0113437 0)
(10.1051 0.00938172 0)
(10.1181 0.0128566 0)
(10.1452 0.00998834 0)
(10.1625 0.0140983 0)
(10.1865 0.0108784 0)
(10.2079 0.015068 0)
(10.2291 0.0123682 0)
(10.2537 0.0157786 0)
(10.2733 0.0142081 0)
(10.3003 0.0167066 0)
(10.3188 0.0158364 0)
(10.3476 0.0182468 0)
(10.365 0.0172958 0)
(10.3953 0.0204968 0)
(10.4119 0.0191652 0)
(10.4426 0.0229606 0)
(10.459 0.0219696 0)
(10.4892 0.0255847 0)
(10.5066 0.0259036 0)
(10.5348 0.0288246 0)
(10.5546 0.0306704 0)
(10.5792 0.0331334 0)
(10.6026 0.0364499 0)
(10.6227 0.038545 0)
(10.6498 0.0439458 0)
(10.6657 0.044895 0)
(10.696 0.0536012 0)
(10.7077 0.0527792 0)
(10.7416 0.065231 0)
(10.7483 0.0633586 0)
(10.7863 0.0785485 0)
(10.7882 0.0775799 0)
(10.8296 0.0940196 0)
(10.8269 0.0958583 0)
(10.8729 0.112459 0)
(10.8631 0.118711 0)
(10.9174 0.134288 0)
(10.8975 0.147905 0)
(10.9613 0.159032 0)
(10.9332 0.185068 0)
(11.003 0.188288 0)
(10.9717 0.228825 0)
(11.0427 0.226793 0)
(11.0145 0.276801 0)
(11.0794 0.277932 0)
(11.0648 0.329922 0)
(11.1116 0.341746 0)
(11.1243 0.391553 0)
(11.1408 0.417926 0)
(11.1922 0.465306 0)
(11.1684 0.505787 0)
(11.2677 0.557304 0)
(11.1988 0.604224 0)
(11.3419 0.672057 0)
(11.2438 0.721017 0)
(11.4037 0.80446 0)
(11.3055 0.873971 0)
(11.4569 0.952406 0)
(11.3708 1.06921 0)
(11.5089 1.13895 0)
(11.4318 1.29452 0)
(11.5526 1.39422 0)
(11.4885 1.55777 0)
(11.5783 1.71124 0)
(11.5312 1.9047 0)
(11.5761 2.06706 0)
(11.5494 2.35198 0)
(11.5228 2.49171 0)
(11.5222 2.85655 0)
(11.4113 3.02353 0)
(11.3896 3.40256 0)
(11.2279 3.63881 0)
(10.0038 -0.0010478 0)
(9.99959 -0.00131573 0)
(10.0135 -0.00521542 0)
(10.0158 -0.00363316 0)
(10.0345 -0.0080248 0)
(10.0429 -0.00557376 0)
(10.0651 -0.00978377 0)
(10.0792 -0.00682709 0)
(10.1026 -0.0105007 0)
(10.1212 -0.00708607 0)
(10.1426 -0.010841 0)
(10.1657 -0.0068313 0)
(10.1838 -0.0109361 0)
(10.2113 -0.00655735 0)
(10.2263 -0.0104664 0)
(10.2572 -0.00646566 0)
(10.2709 -0.00914581 0)
(10.3035 -0.00631783 0)
(10.317 -0.00744006 0)
(10.3502 -0.00550209 0)
(10.3643 -0.00575499 0)
(10.3974 -0.00346845 0)
(10.4119 -0.00417534 0)
(10.4444 -0.000519933 0)
(10.4599 -0.00202849 0)
(10.491 0.00280362 0)
(10.5083 0.00167492 0)
(10.5368 0.00614773 0)
(10.5569 0.00706867 0)
(10.5818 0.0101443 0)
(10.6053 0.0136199 0)
(10.6265 0.0157534 0)
(10.6527 0.0212811 0)
(10.6709 0.0228926 0)
(10.6994 0.0310946 0)
(10.7141 0.0311912 0)
(10.7461 0.0434192 0)
(10.7556 0.0420467 0)
(10.7924 0.0570763 0)
(10.797 0.0573584 0)
(10.8367 0.0718914 0)
(10.8388 0.0772068 0)
(10.8796 0.0896781 0)
(10.8798 0.100913 0)
(10.9236 0.111773 0)
(10.9192 0.12923 0)
(10.9677 0.138602 0)
(10.9604 0.163003 0)
(11.0095 0.1717 0)
(11.0058 0.201947 0)
(11.0491 0.213006 0)
(11.0561 0.247478 0)
(11.0871 0.26155 0)
(11.1133 0.304209 0)
(11.1223 0.31586 0)
(11.1795 0.37381 0)
(11.1576 0.380499 0)
(11.2497 0.452948 0)
(11.2015 0.463306 0)
(11.3185 0.538708 0)
(11.2567 0.571849 0)
(11.389 0.632513 0)
(11.3193 0.706241 0)
(11.4632 0.751244 0)
(11.3917 0.854652 0)
(11.5344 0.916033 0)
(11.4789 1.02475 0)
(11.5981 1.11869 0)
(11.5767 1.25463 0)
(11.6558 1.3512 0)
(11.6761 1.55401 0)
(11.7008 1.65659 0)
(11.7684 1.89678 0)
(11.733 2.07362 0)
(11.8065 2.30388 0)
(11.7713 2.57892 0)
(11.7558 2.819 0)
(11.7558 3.15793 0)
(11.6397 3.44434 0)
(11.6192 3.80836 0)
(10.0029 -0.00313574 0)
(10.0009 -0.00622666 0)
(10.0127 -0.0141648 0)
(10.0182 -0.0148239 0)
(10.0342 -0.0225418 0)
(10.0463 -0.0215281 0)
(10.0659 -0.0275949 0)
(10.0833 -0.0257232 0)
(10.1046 -0.0298002 0)
(10.1251 -0.0278557 0)
(10.1455 -0.0308515 0)
(10.1691 -0.0289033 0)
(10.1874 -0.0316036 0)
(10.2143 -0.0297331 0)
(10.2304 -0.0317776 0)
(10.2602 -0.0306103 0)
(10.2755 -0.0307678 0)
(10.3064 -0.0313678 0)
(10.3224 -0.0289885 0)
(10.3528 -0.0311676 0)
(10.3707 -0.0272897 0)
(10.3996 -0.0291874 0)
(10.4191 -0.0262007 0)
(10.4468 -0.0256956 0)
(10.467 -0.0247673 0)
(10.4947 -0.0216909 0)
(10.5147 -0.0214944 0)
(10.5422 -0.0179439 0)
(10.5629 -0.0160731 0)
(10.5885 -0.0137267 0)
(10.6116 -0.00927809 0)
(10.6342 -0.00774951 0)
(10.6596 -0.00162038 0)
(10.6799 0.000337594 0)
(10.7067 0.00762497 0)
(10.7247 0.010107 0)
(10.7542 0.0192849 0)
(10.7676 0.0220421 0)
(10.8018 0.0330514 0)
(10.8105 0.0375768 0)
(10.847 0.0486965 0)
(10.8554 0.0567112 0)
(10.8897 0.0682146 0)
(10.9011 0.0783177 0)
(10.9325 0.0931779 0)
(10.9465 0.103631 0)
(10.9755 0.121623 0)
(10.9941 0.137239 0)
(11.0168 0.151277 0)
(11.0456 0.180708 0)
(11.0583 0.185376 0)
(11.0992 0.230376 0)
(11.1033 0.230214 0)
(11.155 0.283519 0)
(11.152 0.288649 0)
(11.215 0.342353 0)
(11.2056 0.360534 0)
(11.2793 0.410177 0)
(11.2656 0.446133 0)
(11.3505 0.493766 0)
(11.3317 0.54147 0)
(11.4283 0.602863 0)
(11.4098 0.651687 0)
(11.508 0.729699 0)
(11.5033 0.802797 0)
(11.5915 0.866912 0)
(11.6101 0.998223 0)
(11.6783 1.05173 0)
(11.7303 1.2128 0)
(11.7733 1.32027 0)
(11.8386 1.46898 0)
(11.8996 1.65332 0)
(11.9124 1.82496 0)
(12.0211 2.05082 0)
(11.9927 2.28605 0)
(12.0694 2.55334 0)
(12.0431 2.85963 0)
(12.0773 3.16275 0)
(11.965 3.54105 0)
(12.0029 3.90793 0)
(10.0017 -0.0053191 0)
(10.0023 -0.0117785 0)
(10.0124 -0.0233409 0)
(10.0211 -0.0271206 0)
(10.0357 -0.0372668 0)
(10.051 -0.0386272 0)
(10.0697 -0.0452254 0)
(10.0892 -0.0455858 0)
(10.1103 -0.0484886 0)
(10.1312 -0.0496138 0)
(10.1526 -0.0500909 0)
(10.1747 -0.0519382 0)
(10.1952 -0.0519377 0)
(10.2198 -0.0531127 0)
(10.2386 -0.0539013 0)
(10.2663 -0.0535793 0)
(10.2836 -0.0545341 0)
(10.3136 -0.0542266 0)
(10.3303 -0.0530612 0)
(10.361 -0.0549878 0)
(10.3786 -0.0504139 0)
(10.4083 -0.0544757 0)
(10.4272 -0.0485029 0)
(10.4561 -0.0514612 0)
(10.4754 -0.0474315 0)
(10.5046 -0.0466579 0)
(10.5236 -0.0451224 0)
(10.5525 -0.0420798 0)
(10.5728 -0.0399685 0)
(10.5988 -0.0377412 0)
(10.6231 -0.0327997 0)
(10.6447 -0.0317211 0)
(10.6722 -0.024859 0)
(10.6916 -0.0234397 0)
(10.7194 -0.0150932 0)
(10.7386 -0.0139903 0)
(10.767 -0.00211733 0)
(10.7835 -0.00301088 0)
(10.8157 0.0131602 0)
(10.8276 0.0120133 0)
(10.8627 0.0288646 0)
(10.8739 0.0329197 0)
(10.9073 0.045138 0)
(10.9215 0.059194 0)
(10.9524 0.0648455 0)
(10.9682 0.0884164 0)
(10.9994 0.0911274 0)
(11.0163 0.119737 0)
(11.0458 0.125222 0)
(11.0685 0.154139 0)
(11.0931 0.168014 0)
(11.1226 0.192159 0)
(11.1459 0.220494 0)
(11.1773 0.236449 0)
(11.205 0.279949 0)
(11.2366 0.294011 0)
(11.2685 0.343504 0)
(11.3022 0.366639 0)
(11.3419 0.419093 0)
(11.3696 0.44624 0)
(11.4312 0.520765 0)
(11.4411 0.531839 0)
(11.5317 0.644013 0)
(11.528 0.650212 0)
(11.6362 0.768493 0)
(11.6407 0.822611 0)
(11.7368 0.914466 0)
(11.789 1.02262 0)
(11.8365 1.13505 0)
(11.9491 1.24805 0)
(11.9763 1.42444 0)
(12.0785 1.56223 0)
(12.1503 1.77553 0)
(12.2136 1.97867 0)
(12.2734 2.24467 0)
(12.3692 2.51021 0)
(12.3411 2.82666 0)
(12.439 3.20656 0)
(12.3599 3.55728 0)
(12.3657 3.97628 0)
(10.0004 -0.00761264 0)
(10.0042 -0.0184619 0)
(10.0123 -0.033231 0)
(10.0254 -0.0411918 0)
(10.0385 -0.0526659 0)
(10.0586 -0.0570551 0)
(10.0757 -0.0632456 0)
(10.0994 -0.0657276 0)
(10.1183 -0.0678138 0)
(10.1421 -0.070604 0)
(10.1617 -0.0707235 0)
(10.1854 -0.0735877 0)
(10.2052 -0.0741568 0)
(10.2304 -0.0750083 0)
(10.2491 -0.077759 0)
(10.278 -0.0753191 0)
(10.2938 -0.0797715 0)
(10.3269 -0.0757973 0)
(10.3399 -0.0789232 0)
(10.3758 -0.0769231 0)
(10.3882 -0.0760511 0)
(10.4236 -0.0774187 0)
(10.4373 -0.0734164 0)
(10.472 -0.0753737 0)
(10.4855 -0.0719228 0)
(10.5222 -0.0706988 0)
(10.5329 -0.0701108 0)
(10.5722 -0.0652898 0)
(10.5818 -0.0658854 0)
(10.6198 -0.0600771 0)
(10.6328 -0.0590058 0)
(10.6663 -0.0539535 0)
(10.6828 -0.0506595 0)
(10.7146 -0.0456809 0)
(10.7301 -0.0409451 0)
(10.7641 -0.0351643 0)
(10.7774 -0.0292852 0)
(10.8112 -0.0218909 0)
(10.8272 -0.0161903 0)
(10.8561 -0.00450212 0)
(10.8769 -0.00190452 0)
(10.9024 0.01664 0)
(10.9248 0.01621 0)
(10.9503 0.0386096 0)
(10.9736 0.0415409 0)
(10.9968 0.0604916 0)
(11.026 0.0739264 0)
(11.0431 0.0860452 0)
(11.0796 0.109066 0)
(11.0947 0.120874 0)
(11.1314 0.145374 0)
(11.1528 0.164556 0)
(11.1857 0.188412 0)
(11.2128 0.212381 0)
(11.2495 0.243254 0)
(11.2738 0.264924 0)
(11.3217 0.308789 0)
(11.3429 0.328679 0)
(11.3987 0.380714 0)
(11.4259 0.413218 0)
(11.4812 0.455247 0)
(11.525 0.523937 0)
(11.5712 0.544378 0)
(11.644 0.645254 0)
(11.6722 0.678628 0)
(11.7795 0.770772 0)
(11.8032 0.853537 0)
(11.9155 0.946392 0)
(11.9745 1.04683 0)
(12.0736 1.19355 0)
(12.1444 1.30211 0)
(12.2903 1.50568 0)
(12.3132 1.64422 0)
(12.5016 1.93529 0)
(12.5323 2.10275 0)
(12.6606 2.47746 0)
(12.7283 2.7706 0)
(12.7978 3.13368 0)
(12.7897 3.64275 0)
(12.8448 3.99334 0)
(9.99989 -0.0104435 0)
(10.0057 -0.0264346 0)
(10.0142 -0.0453783 0)
(10.0303 -0.0571196 0)
(10.0451 -0.0702224 0)
(10.0685 -0.0763871 0)
(10.087 -0.0824221 0)
(10.1124 -0.0860236 0)
(10.1319 -0.0872909 0)
(10.1559 -0.0922244 0)
(10.1764 -0.0903772 0)
(10.1991 -0.097137 0)
(10.2211 -0.0942348 0)
(10.244 -0.0995243 0)
(10.2665 -0.0991912 0)
(10.2917 -0.099067 0)
(10.3123 -0.103444 0)
(10.3414 -0.0980269 0)
(10.359 -0.10432 0)
(10.3908 -0.0987204 0)
(10.408 -0.101558 0)
(10.4387 -0.100287 0)
(10.458 -0.0979227 0)
(10.4874 -0.0996756 0)
(10.5064 -0.0954482 0)
(10.5397 -0.0960975 0)
(10.552 -0.0928945 0)
(10.5934 -0.0914595 0)
(10.5988 -0.0882814 0)
(10.6441 -0.0861569 0)
(10.6493 -0.0820273 0)
(10.692 -0.0788709 0)
(10.7003 -0.0747363 0)
(10.7412 -0.0697446 0)
(10.7486 -0.064927 0)
(10.7918 -0.0599831 0)
(10.7971 -0.051416 0)
(10.84 -0.0493284 0)
(10.8482 -0.0345562 0)
(10.8861 -0.0366472 0)
(10.8992 -0.0151483 0)
(10.9346 -0.0200311 0)
(10.947 0.0048003 0)
(10.9868 0.00312931 0)
(10.9937 0.0242143 0)
(11.04 0.0327344 0)
(11.0434 0.0463869 0)
(11.0923 0.0657669 0)
(11.0971 0.0743873 0)
(11.1469 0.102423 0)
(11.1524 0.107726 0)
(11.2072 0.144087 0)
(11.2098 0.149561 0)
(11.2723 0.187623 0)
(11.274 0.203447 0)
(11.3421 0.237257 0)
(11.345 0.260274 0)
(11.4236 0.305841 0)
(11.4191 0.319586 0)
(11.5208 0.382835 0)
(11.5064 0.407541 0)
(11.6203 0.452843 0)
(11.6273 0.523049 0)
(11.7168 0.553516 0)
(11.7774 0.624656 0)
(11.8427 0.719355 0)
(11.9237 0.733954 0)
(12.0317 0.909324 0)
(12.0763 0.92062 0)
(12.2422 1.10988 0)
(12.3089 1.18871 0)
(12.4351 1.38064 0)
(12.5948 1.54899 0)
(12.6877 1.74368 0)
(12.8629 2.06462 0)
(12.9641 2.2555 0)
(13.13 2.74548 0)
(13.2068 3.03646 0)
(13.2815 3.56946 0)
(13.3537 4.11458 0)
(10.0002 -0.0141999 0)
(10.0069 -0.0367314 0)
(10.0192 -0.0612161 0)
(10.0374 -0.0763071 0)
(10.058 -0.0908596 0)
(10.0822 -0.0978848 0)
(10.1063 -0.103381 0)
(10.1291 -0.107763 0)
(10.1539 -0.108216 0)
(10.173 -0.114949 0)
(10.1995 -0.111792 0)
(10.2163 -0.121511 0)
(10.2454 -0.116012 0)
(10.2616 -0.124944 0)
(10.2922 -0.121323 0)
(10.3098 -0.124431 0)
(10.3391 -0.126353 0)
(10.3603 -0.122697 0)
(10.3863 -0.128277 0)
(10.4103 -0.122778 0)
(10.4358 -0.126357 0)
(10.4581 -0.124096 0)
(10.4872 -0.123095 0)
(10.5064 -0.123681 0)
(10.5369 -0.120395 0)
(10.5588 -0.120917 0)
(10.5828 -0.116903 0)
(10.6137 -0.117578 0)
(10.6291 -0.111034 0)
(10.6658 -0.113328 0)
(10.6795 -0.104046 0)
(10.7146 -0.106403 0)
(10.7304 -0.0962967 0)
(10.7647 -0.0979099 0)
(10.7783 -0.0851663 0)
(10.817 -0.0895788 0)
(10.8254 -0.0703278 0)
(10.8681 -0.0790387 0)
(10.8737 -0.0548743 0)
(10.9188 -0.0631224 0)
(10.921 -0.0401264 0)
(10.9715 -0.0414555 0)
(10.9672 -0.0252325 0)
(11.0252 -0.0151691 0)
(11.0155 -0.00706728 0)
(11.0776 0.0117867 0)
(11.069 0.0193832 0)
(11.1276 0.0366115 0)
(11.1291 0.0538976 0)
(11.1779 0.0653247 0)
(11.1912 0.0891869 0)
(11.2383 0.103773 0)
(11.2495 0.12757 0)
(11.3107 0.144316 0)
(11.3133 0.182714 0)
(11.3832 0.17889 0)
(11.3955 0.252913 0)
(11.4576 0.225521 0)
(11.4878 0.313378 0)
(11.5542 0.313014 0)
(11.5782 0.352405 0)
(11.6794 0.434768 0)
(11.6824 0.407657 0)
(11.8122 0.543471 0)
(11.8339 0.52907 0)
(11.9374 0.627382 0)
(12.0442 0.700419 0)
(12.0822 0.745913 0)
(12.2773 0.894578 0)
(12.3005 0.911247 0)
(12.5268 1.16186 0)
(12.5807 1.13077 0)
(12.8332 1.48463 0)
(12.9166 1.54111 0)
(13.1678 1.85867 0)
(13.3252 2.16713 0)
(13.5159 2.46337 0)
(13.6938 3.02498 0)
(13.816 3.42283 0)
(13.9708 4.12179 0)
(9.99821 -0.0198385 0)
(10.0124 -0.0504514 0)
(10.0253 -0.0822334 0)
(10.0533 -0.0987629 0)
(10.0764 -0.116279 0)
(10.1063 -0.120867 0)
(10.1329 -0.129074 0)
(10.1549 -0.130714 0)
(10.1842 -0.135101 0)
(10.1975 -0.139703 0)
(10.2315 -0.139925 0)
(10.2406 -0.1485 0)
(10.2781 -0.143948 0)
(10.2875 -0.153502 0)
(10.3242 -0.14842 0)
(10.3379 -0.153588 0)
(10.3693 -0.153214 0)
(10.3896 -0.151787 0)
(10.4146 -0.15559 0)
(10.4395 -0.151462 0)
(10.4625 -0.154523 0)
(10.4862 -0.151666 0)
(10.5126 -0.152926 0)
(10.5326 -0.149107 0)
(10.5608 -0.152285 0)
(10.5827 -0.144637 0)
(10.6043 -0.149238 0)
(10.6353 -0.141635 0)
(10.6469 -0.142024 0)
(10.6855 -0.137929 0)
(10.6924 -0.135307 0)
(10.7321 -0.128481 0)
(10.7386 -0.131019 0)
(10.7784 -0.115535 0)
(10.7831 -0.123294 0)
(10.824 -0.104626 0)
(10.83 -0.109205 0)
(10.8641 -0.0943388 0)
(10.8821 -0.0919017 0)
(10.9002 -0.0818191 0)
(10.9352 -0.0718156 0)
(10.9387 -0.0676479 0)
(10.9846 -0.0488621 0)
(10.9838 -0.0496217 0)
(11.0292 -0.0254462 0)
(11.0358 -0.0268643 0)
(11.0727 0.00103204 0)
(11.0899 -0.0033979 0)
(11.1233 0.0333243 0)
(11.1429 0.0234863 0)
(11.1804 0.0649035 0)
(11.205 0.0638859 0)
(11.2354 0.090032 0)
(11.2831 0.116802 0)
(11.2957 0.119821 0)
(11.3625 0.170493 0)
(11.3809 0.16199 0)
(11.4395 0.228816 0)
(11.4878 0.20918 0)
(11.5301 0.298378 0)
(11.6112 0.272162 0)
(11.6343 0.357281 0)
(11.7651 0.383441 0)
(11.7534 0.392873 0)
(11.9435 0.52977 0)
(11.9182 0.459756 0)
(12.1336 0.6523 0)
(12.1506 0.616107 0)
(12.3405 0.752106 0)
(12.4551 0.832828 0)
(12.6002 0.915944 0)
(12.8028 1.08641 0)
(12.9687 1.15159 0)
(13.227 1.45383 0)
(13.3913 1.52181 0)
(13.7617 1.95629 0)
(13.8971 2.20295 0)
(14.3104 2.73258 0)
(14.3323 3.27072 0)
(14.7711 4.06676 0)
(9.99409 -0.0274704 0)
(10.0233 -0.0681874 0)
(10.0369 -0.100869 0)
(10.0805 -0.116024 0)