/*--------------------------------*- C++ -*----------------------------------*\
| =========                 |                                                 |
| \\      /  F ield         | OpenFOAM: The Open Source CFD Toolbox           |
|  \\    /   O peration     | Version:  2306                                  |
|   \\  /    A nd           | Website:  www.openfoam.com                      |
|    \\/     M anipulation  |                                                 |
\*---------------------------------------------------------------------------*/
FoamFile
{
    version     2.0;
    format      ascii;
    arch        "LSB;label=32;scalar=64";
    class       volScalarField;
    location    "0.45";
    object      p;
}
// * * * * * * * * * * * * * * * * * * * * * * * * * * * * * * * * * * * * * //

dimensions      [0 2 -2 0 0 0 0];

internalField   nonuniform List<scalar> 
17600
(
332.197
330.153
328.375
327.145
326.382
325.875
325.458
325.05
324.633
324.209
323.789
323.377
322.973
322.576
322.184
321.798
321.417
321.044
320.683
320.337
320.008
319.701
319.417
319.158
318.925
318.717
318.535
318.376
318.238
318.119
318.016
317.927
317.848
317.777
317.712
317.651
317.593
317.535
317.477
317.419
317.36
317.3
317.237
317.174
317.108
317.041
316.973
316.903
316.833
316.761
316.69
316.617
316.545
316.472
316.4
316.328
316.256
316.185
316.114
316.044
315.975
315.907
315.84
315.773
315.708
315.644
315.581
315.519
315.459
315.4
315.342
315.285
315.23
315.177
315.125
315.075
315.026
314.979
314.933
314.89
314.848
314.808
314.771
314.735
314.701
314.67
314.641
314.614
314.59
314.569
314.55
314.533
314.52
314.51
314.503
314.498
314.498
314.5
314.507
314.517
314.531
314.548
314.57
314.596
314.626
314.661
314.7
314.744
314.793
314.846
314.904
314.968
315.036
315.109
315.188
315.271
315.36
315.453
315.552
315.655
315.762
315.874
315.991
316.111
316.234
316.361
316.49
316.621
316.754
316.887
317.021
317.155
317.288
317.419
317.547
317.672
317.794
317.911
318.023
318.129
318.23
318.324
318.411
318.491
318.563
318.627
318.684
318.734
318.776
318.812
318.84
318.861
318.876
318.884
318.886
318.883
318.874
318.859
318.84
318.817
329.467
328.698
327.771
326.907
326.217
325.694
325.274
324.892
324.511
324.123
323.729
323.334
322.944
322.56
322.181
321.807
321.439
321.079
320.731
320.396
320.077
319.778
319.499
319.244
319.012
318.805
318.62
318.458
318.317
318.193
318.085
317.99
317.906
317.83
317.76
317.694
317.63
317.569
317.508
317.446
317.385
317.322
317.257
317.192
317.125
317.056
316.987
316.916
316.845
316.773
316.7
316.628
316.555
316.482
316.409
316.336
316.264
316.193
316.122
316.052
315.983
315.914
315.847
315.78
315.715
315.651
315.588
315.526
315.465
315.406
315.348
315.291
315.236
315.183
315.131
315.08
315.031
314.984
314.939
314.895
314.854
314.814
314.776
314.74
314.707
314.675
314.646
314.62
314.596
314.574
314.555
314.539
314.526
314.516
314.509
314.505
314.504
314.507
314.513
314.524
314.538
314.556
314.578
314.604
314.635
314.67
314.709
314.754
314.803
314.857
314.915
314.979
315.048
315.122
315.201
315.286
315.375
315.469
315.569
315.673
315.781
315.894
316.012
316.133
316.257
316.384
316.514
316.647
316.78
316.914
317.049
317.182
317.315
317.445
317.573
317.697
317.818
317.933
318.044
318.149
318.249
318.342
318.428
318.507
318.578
318.642
318.698
318.746
318.787
318.821
318.849
318.869
318.882
318.889
318.89
318.886
318.877
318.862
318.842
318.818
328.163
327.814
327.284
326.672
326.08
325.566
325.133
324.753
324.393
324.031
323.663
323.291
322.92
322.552
322.19
321.833
321.484
321.144
320.814
320.496
320.192
319.905
319.636
319.387
319.158
318.95
318.762
318.595
318.445
318.313
318.195
318.089
317.994
317.908
317.828
317.753
317.682
317.613
317.545
317.477
317.41
317.342
317.274
317.205
317.136
317.066
316.995
316.923
316.851
316.778
316.705
316.632
316.559
316.486
316.413
316.34
316.268
316.196
316.125
316.055
315.986
315.917
315.849
315.783
315.717
315.653
315.589
315.527
315.466
315.407
315.349
315.292
315.236
315.183
315.13
315.079
315.03
314.983
314.937
314.893
314.851
314.81
314.772
314.736
314.702
314.67
314.641
314.613
314.589
314.567
314.547
314.53
314.516
314.506
314.498
314.493
314.492
314.494
314.5
314.509
314.522
314.539
314.561
314.586
314.616
314.65
314.689
314.732
314.78
314.833
314.891
314.954
315.022
315.096
315.174
315.258
315.347
315.441
315.539
315.643
315.752
315.865
315.983
316.104
316.229
316.358
316.489
316.623
316.758
316.895
317.032
317.168
317.304
317.438
317.569
317.697
317.821
317.941
318.054
318.162
318.264
318.358
318.444
318.523
318.593
318.656
318.711
318.759
318.8
318.834
318.861
318.881
318.894
318.901
318.901
318.896
318.885
318.869
318.849
318.824
327.26
327.067
326.735
326.299
325.824
325.368
324.957
324.589
324.246
323.909
323.569
323.224
322.876
322.53
322.188
321.851
321.522
321.201
320.889
320.588
320.3
320.025
319.767
319.525
319.301
319.095
318.906
318.735
318.581
318.441
318.315
318.201
318.096
318
317.911
317.827
317.747
317.67
317.595
317.521
317.448
317.376
317.303
317.231
317.158
317.086
317.012
316.939
316.865
316.791
316.716
316.642
316.568
316.494
316.42
316.347
316.274
316.202
316.131
316.06
315.99
315.921
315.853
315.786
315.72
315.655
315.591
315.528
315.467
315.407
315.348
315.29
315.234
315.18
315.126
315.075
315.025
314.977
314.93
314.885
314.842
314.801
314.762
314.724
314.689
314.656
314.626
314.597
314.571
314.548
314.527
314.509
314.494
314.481
314.472
314.465
314.462
314.463
314.467
314.474
314.485
314.5
314.519
314.542
314.569
314.601
314.637
314.678
314.724
314.774
314.829
314.889
314.955
315.025
315.101
315.182
315.268
315.359
315.455
315.557
315.663
315.774
315.89
316.01
316.134
316.261
316.392
316.526
316.662
316.8
316.939
317.078
317.217
317.356
317.492
317.626
317.756
317.882
318.004
318.119
318.229
318.332
318.427
318.514
318.592
318.662
318.722
318.774
318.816
318.85
318.875
318.893
318.905
318.912
318.913
318.909
318.898
318.882
318.861
318.835
326.573
326.448
326.22
325.903
325.532
325.147
324.776
324.431
324.106
323.79
323.474
323.154
322.83
322.506
322.183
321.866
321.555
321.252
320.956
320.671
320.396
320.133
319.884
319.65
319.431
319.227
319.039
318.866
318.708
318.563
318.43
318.308
318.196
318.092
317.994
317.902
317.815
317.731
317.649
317.569
317.491
317.413
317.336
317.26
317.184
317.108
317.033
316.957
316.881
316.805
316.729
316.654
316.579
316.504
316.429
316.355
316.281
316.209
316.136
316.065
315.994
315.925
315.856
315.788
315.721
315.656
315.591
315.528
315.466
315.405
315.345
315.287
315.23
315.174
315.12
315.068
315.016
314.967
314.919
314.873
314.829
314.786
314.746
314.707
314.67
314.636
314.603
314.573
314.545
314.52
314.497
314.477
314.459
314.444
314.432
314.423
314.417
314.415
314.415
314.42
314.428
314.439
314.454
314.474
314.497
314.524
314.556
314.593
314.633
314.679
314.729
314.784
314.844
314.909
314.979
315.054
315.135
315.22
315.311
315.406
315.506
315.612
315.722
315.836
315.955
316.078
316.204
316.334
316.467
316.602
316.738
316.877
317.016
317.155
317.293
317.43
317.566
317.699
317.828
317.954
318.075
318.19
318.299
318.401
318.495
318.581
318.657
318.725
318.782
318.831
318.87
318.899
318.918
318.927
318.928
318.921
318.908
318.891
318.871
318.847
326.026
325.936
325.769
325.531
325.24
324.92
324.595
324.278
323.974
323.677
323.382
323.083
322.782
322.478
322.175
321.876
321.582
321.294
321.013
320.741
320.478
320.226
319.986
319.758
319.544
319.343
319.155
318.981
318.82
318.671
318.534
318.406
318.287
318.176
318.072
317.973
317.878
317.788
317.7
317.615
317.532
317.45
317.369
317.289
317.21
317.131
317.053
316.975
316.897
316.819
316.742
316.665
316.589
316.513
316.437
316.362
316.288
316.214
316.141
316.069
315.998
315.928
315.858
315.79
315.722
315.656
315.59
315.526
315.463
315.401
315.341
315.281
315.223
315.167
315.112
315.058
315.005
314.955
314.905
314.858
314.812
314.768
314.726
314.685
314.646
314.61
314.575
314.543
314.513
314.485
314.459
314.436
314.416
314.398
314.383
314.371
314.361
314.355
314.352
314.352
314.355
314.362
314.373
314.387
314.405
314.427
314.453
314.483
314.518
314.557
314.6
314.648
314.7
314.757
314.819
314.886
314.958
315.034
315.115
315.201
315.292
315.388
315.488
315.593
315.702
315.815
315.932
316.053
316.177
316.304
316.433
316.565
316.698
316.833
316.969
317.104
317.24
317.375
317.508
317.639
317.767
317.893
318.014
318.13
318.241
318.346
318.444
318.535
318.618
318.692
318.756
318.81
318.853
318.884
318.906
318.916
318.916
318.906
318.885
318.858
325.577
325.509
325.38
325.195
324.962
324.696
324.413
324.128
323.846
323.568
323.291
323.012
322.731
322.446
322.162
321.879
321.6
321.326
321.059
320.799
320.547
320.305
320.072
319.851
319.641
319.443
319.256
319.082
318.919
318.767
318.625
318.493
318.369
318.252
318.142
318.037
317.937
317.841
317.748
317.658
317.57
317.484
317.4
317.317
317.234
317.153
317.072
316.992
316.912
316.833
316.754
316.676
316.598
316.521
316.445
316.369
316.294
316.219
316.146
316.073
316.001
315.93
315.859
315.79
315.722
315.655
315.588
315.523
315.459
315.397
315.335
315.275
315.215
315.158
315.101
315.046
314.992
314.94
314.89
314.84
314.793
314.747
314.703
314.66
314.62
314.581
314.544
314.509
314.476
314.446
314.417
314.391
314.368
314.346
314.328
314.312
314.298
314.288
314.28
314.276
314.274
314.276
314.281
314.289
314.301
314.317
314.336
314.359
314.386
314.417
314.452
314.492
314.535
314.583
314.635
314.691
314.752
314.818
314.887
314.962
315.04
315.123
315.211
315.302
315.398
315.497
315.601
315.708
315.818
315.932
316.048
316.168
316.289
316.413
316.539
316.666
316.794
316.923
317.052
317.181
317.31
317.438
317.565
317.69
317.813
317.933
318.05
318.162
318.269
318.37
318.465
318.551
318.63
318.698
318.755
318.801
318.833
318.852
318.859
318.854
325.203
325.148
325.045
324.896
324.705
324.481
324.236
323.98
323.722
323.463
323.203
322.942
322.678
322.411
322.143
321.876
321.611
321.351
321.095
320.846
320.604
320.37
320.145
319.929
319.724
319.529
319.344
319.17
319.006
318.852
318.707
318.571
318.442
318.321
318.206
318.096
317.991
317.89
317.793
317.699
317.607
317.517
317.429
317.343
317.258
317.174
317.09
317.008
316.927
316.846
316.766
316.686
316.607
316.529
316.452
316.375
316.299
316.223
316.149
316.075
316.002
315.931
315.86
315.789
315.72
315.652
315.585
315.519
315.454
315.391
315.328
315.266
315.206
315.147
315.089
315.033
314.978
314.924
314.872
314.821
314.772
314.724
314.678
314.633
314.591
314.55
314.51
314.473
314.437
314.404
314.373
314.343
314.316
314.291
314.269
314.249
314.231
314.216
314.204
314.195
314.188
314.184
314.183
314.186
314.191
314.2
314.212
314.227
314.246
314.269
314.295
314.325
314.358
314.396
314.437
314.482
314.531
314.584
314.641
314.702
314.767
314.835
314.908
314.984
315.064
315.147
315.234
315.324
315.418
315.514
315.614
315.716
315.82
315.928
316.037
316.149
316.262
316.378
316.495
316.614
316.734
316.856
316.979
317.103
317.228
317.353
317.479
317.604
317.728
317.85
317.971
318.088
318.2
318.306
318.406
318.496
318.576
318.643
318.697
318.736
324.886
324.841
324.756
324.632
324.471
324.28
324.067
323.838
323.602
323.362
323.119
322.874
322.625
322.374
322.122
321.869
321.617
321.368
321.124
320.885
320.652
320.426
320.207
319.997
319.795
319.603
319.42
319.246
319.082
318.926
318.779
318.64
318.508
318.383
318.263
318.15
318.04
317.936
317.834
317.736
317.641
317.548
317.457
317.367
317.28
317.193
317.108
317.023
316.94
316.858
316.776
316.695
316.615
316.536
316.457
316.38
316.303
316.227
316.151
316.077
316.003
315.931
315.859
315.788
315.718
315.649
315.581
315.514
315.448
315.383
315.32
315.257
315.196
315.135
315.076
315.019
314.962
314.907
314.853
314.8
314.749
314.7
314.651
314.605
314.56
314.516
314.475
314.435
314.396
314.36
314.326
314.293
314.263
314.234
314.208
314.184
314.162
314.142
314.125
314.11
314.098
314.089
314.082
314.078
314.077
314.078
314.083
314.09
314.101
314.115
314.132
314.152
314.175
314.202
314.232
314.265
314.302
314.342
314.385
314.432
314.482
314.535
314.592
314.651
314.714
314.78
314.849
314.92
314.994
315.071
315.151
315.233
315.317
315.404
315.493
315.585
315.679
315.775
315.874
315.975
316.079
316.186
316.295
316.408
316.524
316.643
316.766
316.892
317.021
317.153
317.288
317.424
317.562
317.699
317.834
317.967
318.094
318.213
318.323
318.421
324.616
324.579
324.507
324.401
324.263
324.097
323.909
323.705
323.489
323.266
323.039
322.809
322.574
322.337
322.098
321.858
321.618
321.381
321.146
320.916
320.691
320.472
320.26
320.054
319.857
319.667
319.486
319.313
319.148
318.992
318.843
318.701
318.566
318.438
318.315
318.198
318.085
317.977
317.872
317.771
317.672
317.576
317.482
317.39
317.3
317.211
317.124
317.038
316.953
316.869
316.786
316.704
316.622
316.542
316.463
316.384
316.306
316.229
316.153
316.078
316.003
315.93
315.857
315.785
315.714
315.644
315.576
315.508
315.441
315.375
315.31
315.246
315.184
315.122
315.062
315.003
314.945
314.888
314.832
314.778
314.725
314.674
314.624
314.575
314.528
314.482
314.438
314.395
314.354
314.314
314.277
314.241
314.207
314.175
314.144
314.116
314.09
314.066
314.044
314.024
314.006
313.991
313.978
313.967
313.959
313.954
313.951
313.95
313.953
313.957
313.965
313.975
313.988
314.004
314.023
314.044
314.068
314.095
314.124
314.157
314.192
314.229
314.269
314.312
314.357
314.404
314.454
314.506
314.56
314.616
314.674
314.734
314.796
314.86
314.927
314.995
315.066
315.139
315.215
315.293
315.375
315.461
315.55
315.643
315.742
315.845
315.954
316.069
316.191
316.319
316.454
316.596
316.744
316.898
317.057
317.219
317.384
317.548
317.709
317.865
324.386
324.354
324.291
324.199
324.079
323.933
323.765
323.581
323.383
323.177
322.965
322.747
322.526
322.301
322.074
321.846
321.617
321.389
321.163
320.941
320.724
320.511
320.304
320.103
319.909
319.722
319.543
319.37
319.206
319.048
318.898
318.755
318.618
318.487
318.361
318.241
318.125
318.014
317.906
317.802
317.7
317.601
317.505
317.411
317.318
317.228
317.138
317.051
316.964
316.878
316.794
316.711
316.628
316.547
316.467
316.387
316.308
316.23
316.153
316.077
316.002
315.927
315.854
315.781
315.71
315.639
315.569
315.5
315.432
315.366
315.3
315.235
315.171
315.108
315.046
314.986
314.926
314.868
314.811
314.755
314.7
314.647
314.594
314.543
314.494
314.446
314.399
314.354
314.31
314.267
314.226
314.187
314.15
314.114
314.079
314.047
314.016
313.987
313.96
313.935
313.912
313.891
313.872
313.855
313.84
313.827
313.817
313.808
313.802
313.798
313.796
313.796
313.799
313.804
313.811
313.82
313.831
313.845
313.86
313.878
313.898
313.919
313.943
313.968
313.995
314.024
314.054
314.086
314.119
314.153
314.189
314.227
314.266
314.306
314.348
314.392
314.437
314.485
314.535
314.587
314.643
314.703
314.767
314.836
314.91
314.99
315.078
315.173
315.277
315.39
315.513
315.646
315.79
315.946
316.112
316.288
316.473
316.667
316.866
317.067
324.19
324.161
324.106
324.024
323.917
323.787
323.636
323.468
323.287
323.095
322.896
322.691
322.481
322.267
322.051
321.832
321.613
321.394
321.176
320.961
320.75
320.543
320.341
320.144
319.953
319.769
319.591
319.42
319.255
319.098
318.947
318.802
318.663
318.53
318.402
318.279
318.161
318.047
317.936
317.829
317.725
317.624
317.526
317.429
317.335
317.242
317.151
317.062
316.974
316.887
316.801
316.717
316.633
316.551
316.47
316.389
316.309
316.231
316.153
316.076
316
315.924
315.85
315.777
315.704
315.633
315.562
315.492
315.423
315.355
315.288
315.222
315.157
315.093
315.03
314.968
314.907
314.847
314.788
314.73
314.674
314.618
314.564
314.511
314.459
314.408
314.359
314.311
314.264
314.219
314.175
314.132
314.091
314.051
314.013
313.976
313.941
313.907
313.876
313.845
313.817
313.79
313.764
313.741
313.719
313.699
313.68
313.664
313.649
313.636
313.625
313.615
313.607
313.601
313.597
313.594
313.592
313.593
313.594
313.597
313.602
313.607
313.614
313.622
313.631
313.641
313.651
313.663
313.675
313.687
313.701
313.715
313.73
313.745
313.762
313.78
313.799
313.819
313.841
313.866
313.894
313.925
313.96
314
314.046
314.099
314.159
314.228
314.306
314.396
314.497
314.612
314.74
314.883
315.042
315.216
315.406
315.61
315.829
316.059
324.023
323.997
323.947
323.874
323.777
323.659
323.522
323.368
323.2
323.021
322.833
322.639
322.439
322.235
322.028
321.818
321.607
321.396
321.185
320.977
320.771
320.569
320.371
320.178
319.991
319.808
319.632
319.462
319.298
319.14
318.988
318.842
318.702
318.567
318.437
318.312
318.192
318.076
317.963
317.854
317.748
317.644
317.544
317.445
317.349
317.255
317.163
317.072
316.982
316.894
316.807
316.722
316.637
316.554
316.471
316.39
316.309
316.23
316.151
316.073
315.997
315.921
315.845
315.771
315.698
315.625
315.553
315.483
315.413
315.344
315.276
315.208
315.142
315.077
315.012
314.949
314.886
314.825
314.764
314.705
314.646
314.589
314.532
314.477
314.423
314.37
314.318
314.267
314.217
314.169
314.122
314.076
314.031
313.987
313.945
313.904
313.864
313.826
313.789
313.754
313.719
313.686
313.655
313.625
313.596
313.569
313.543
313.518
313.495
313.473
313.452
313.433
313.414
313.397
313.381
313.366
313.352
313.339
313.327
313.315
313.304
313.294
313.284
313.274
313.265
313.256
313.247
313.238
313.228
313.219
313.21
313.2
313.19
313.181
313.171
313.162
313.153
313.146
313.139
313.134
313.132
313.132
313.137
313.146
313.16
313.181
313.21
313.248
313.296
313.356
313.429
313.517
313.621
313.742
313.882
314.041
314.22
314.421
314.641
314.881
323.882
323.859
323.813
323.746
323.658
323.55
323.423
323.28
323.123
322.955
322.778
322.593
322.402
322.206
322.007
321.805
321.601
321.396
321.192
320.989
320.788
320.591
320.397
320.207
320.021
319.841
319.666
319.497
319.333
319.176
319.023
318.876
318.735
318.599
318.468
318.341
318.219
318.1
317.986
317.875
317.767
317.662
317.559
317.459
317.362
317.266
317.172
317.08
316.989
316.9
316.812
316.725
316.64
316.556
316.472
316.39
316.309
316.228
316.149
316.07
315.992
315.916
315.84
315.764
315.69
315.617
315.544
315.472
315.401
315.331
315.262
315.194
315.126
315.059
314.994
314.929
314.865
314.802
314.739
314.678
314.618
314.558
314.5
314.442
314.386
314.33
314.276
314.222
314.169
314.118
314.067
314.018
313.97
313.922
313.876
313.831
313.787
313.744
313.702
313.661
313.621
313.582
313.545
313.508
313.472
313.438
313.404
313.371
313.34
313.309
313.278
313.249
313.22
313.192
313.165
313.138
313.111
313.085
313.058
313.032
313.006
312.98
312.953
312.926
312.898
312.87
312.841
312.811
312.781
312.749
312.716
312.683
312.648
312.613
312.577
312.54
312.503
312.466
312.429
312.394
312.36
312.328
312.299
312.275
312.255
312.242
312.236
312.24
312.254
312.28
312.319
312.375
312.447
312.539
312.652
312.787
312.946
313.129
313.339
313.574
323.765
323.743
323.702
323.64
323.558
323.457
323.339
323.205
323.057
322.898
322.729
322.552
322.369
322.18
321.988
321.792
321.594
321.395
321.196
320.998
320.802
320.608
320.417
320.23
320.047
319.868
319.695
319.526
319.363
319.205
319.052
318.905
318.763
318.625
318.493
318.365
318.241
318.121
318.005
317.892
317.783
317.676
317.572
317.471
317.372
317.275
317.179
317.086
316.994
316.904
316.815
316.728
316.641
316.556
316.472
316.389
316.307
316.225
316.145
316.066
315.987
315.91
315.833
315.757
315.682
315.607
315.534
315.461
315.389
315.318
315.248
315.178
315.109
315.041
314.974
314.908
314.842
314.778
314.714
314.651
314.588
314.527
314.466
314.407
314.348
314.29
314.232
314.176
314.121
314.066
314.012
313.959
313.907
313.856
313.806
313.756
313.708
313.66
313.613
313.567
313.522
313.477
313.433
313.39
313.347
313.306
313.264
313.224
313.183
313.144
313.104
313.065
313.026
312.987
312.948
312.909
312.869
312.83
312.79
312.749
312.707
312.665
312.622
312.577
312.531
312.484
312.435
312.384
312.332
312.278
312.222
312.164
312.104
312.042
311.979
311.914
311.848
311.78
311.713
311.645
311.578
311.512
311.449
311.389
311.333
311.283
311.24
311.206
311.182
311.17
311.173
311.191
311.228
311.285
311.364
311.468
311.599
311.757
311.945
312.163
323.67
323.65
323.611
323.552
323.475
323.381
323.269
323.142
323.002
322.85
322.688
322.518
322.341
322.158
321.971
321.781
321.588
321.394
321.199
321.005
320.812
320.621
320.433
320.248
320.067
319.89
319.717
319.55
319.387
319.229
319.076
318.928
318.785
318.647
318.513
318.384
318.259
318.138
318.02
317.906
317.795
317.688
317.582
317.48
317.379
317.281
317.185
317.091
316.998
316.907
316.817
316.729
316.641
316.555
316.47
316.387
316.304
316.222
316.141
316.061
315.981
315.903
315.825
315.748
315.672
315.597
315.523
315.449
315.376
315.304
315.232
315.162
315.092
315.022
314.954
314.886
314.819
314.753
314.687
314.622
314.558
314.495
314.432
314.37
314.309
314.248
314.188
314.129
314.071
314.013
313.956
313.9
313.844
313.789
313.735
313.681
313.628
313.576
313.524
313.472
313.422
313.371
313.321
313.271
313.222
313.173
313.124
313.075
313.027
312.978
312.929
312.88
312.831
312.781
312.731
312.68
312.628
312.575
312.521
312.466
312.409
312.351
312.291
312.228
312.164
312.098
312.029
311.958
311.883
311.806
311.727
311.644
311.558
311.47
311.378
311.284
311.188
311.09
310.99
310.889
310.787
310.686
310.586
310.488
310.394
310.305
310.222
310.147
310.082
310.03
309.991
309.968
309.965
309.982
310.023
310.09
310.186
310.312
310.471
310.665
323.596
323.576
323.539
323.484
323.41
323.32
323.213
323.092
322.957
322.811
322.655
322.49
322.318
322.14
321.957
321.771
321.582
321.392
321.2
321.009
320.819
320.631
320.445
320.262
320.082
319.906
319.735
319.567
319.405
319.247
319.094
318.946
318.802
318.663
318.529
318.399
318.273
318.151
318.032
317.917
317.805
317.696
317.59
317.486
317.385
317.286
317.189
317.093
317
316.908
316.817
316.728
316.64
316.553
316.468
316.383
316.3
316.217
316.135
316.054
315.974
315.895
315.817
315.739
315.662
315.586
315.511
315.436
315.362
315.289
315.216
315.144
315.073
315.003
314.933
314.863
314.795
314.727
314.66
314.593
314.527
314.462
314.397
314.333
314.269
314.206
314.144
314.082
314.021
313.96
313.9
313.84
313.781
313.722
313.664
313.606
313.548
313.491
313.434
313.377
313.321
313.265
313.209
313.152
313.096
313.04
312.984
312.927
312.87
312.813
312.754
312.696
312.636
312.576
312.514
312.451
312.387
312.321
312.253
312.183
312.111
312.037
311.96
311.881
311.798
311.713
311.624
311.531
311.435
311.335
311.231
311.123
311.012
310.896
310.776
310.652
310.525
310.394
310.261
310.125
309.988
309.849
309.711
309.573
309.438
309.307
309.182
309.063
308.954
308.856
308.773
308.705
308.657
308.63
308.628
308.654
308.709
308.798
308.923
309.085
323.541
323.522
323.486
323.433
323.362
323.275
323.172
323.055
322.924
322.782
322.629
322.468
322.3
322.126
321.946
321.763
321.577
321.39
321.201
321.012
320.824
320.638
320.453
320.271
320.093
319.918
319.747
319.58
319.418
319.26
319.107
318.959
318.815
318.675
318.54
318.409
318.282
318.159
318.04
317.924
317.811
317.702
317.595
317.49
317.388
317.288
317.19
317.094
317
316.907
316.816
316.726
316.638
316.55
316.464
316.379
316.294
316.211
316.129
316.047
315.966
315.887
315.807
315.729
315.651
315.574
315.498
315.422
315.347
315.273
315.199
315.126
315.054
314.982
314.911
314.84
314.77
314.7
314.632
314.563
314.495
314.428
314.361
314.295
314.229
314.163
314.098
314.034
313.97
313.906
313.842
313.779
313.716
313.654
313.592
313.529
313.468
313.406
313.344
313.282
313.22
313.158
313.096
313.033
312.971
312.907
312.843
312.779
312.714
312.647
312.58
312.512
312.442
312.371
312.298
312.223
312.146
312.067
311.986
311.902
311.815
311.725
311.631
311.534
311.434
311.329
311.22
311.106
310.988
310.865
310.737
310.603
310.465
310.321
310.172
310.018
309.859
309.695
309.527
309.355
309.18
309.003
308.824
308.644
308.466
308.29
308.118
307.953
307.796
307.65
307.517
307.4
307.302
307.227
307.177
307.156
307.167
307.213
307.298
307.423
323.504
323.486
323.451
323.399
323.33
323.245
323.144
323.029
322.902
322.762
322.612
322.454
322.288
322.116
321.939
321.758
321.574
321.388
321.201
321.014
320.827
320.642
320.458
320.277
320.1
319.925
319.755
319.588
319.426
319.268
319.115
318.966
318.822
318.682
318.547
318.415
318.288
318.165
318.045
317.928
317.815
317.704
317.597
317.491
317.389
317.288
317.19
317.093
316.998
316.905
316.813
316.723
316.634
316.546
316.459
316.373
316.288
316.204
316.121
316.039
315.958
315.877
315.797
315.718
315.639
315.562
315.484
315.408
315.332
315.257
315.182
315.108
315.034
314.961
314.888
314.816
314.745
314.673
314.603
314.533
314.463
314.394
314.325
314.256
314.188
314.12
314.052
313.985
313.918
313.851
313.785
313.718
313.652
313.586
313.519
313.453
313.387
313.32
313.254
313.187
313.119
313.052
312.983
312.915
312.845
312.775
312.703
312.631
312.558
312.483
312.406
312.328
312.249
312.167
312.083
311.996
311.907
311.816
311.721
311.622
311.52
311.414
311.304
311.19
311.071
310.947
310.818
310.683
310.543
310.396
310.244
310.085
309.919
309.747
309.569
309.383
309.191
308.993
308.789
308.58
308.365
308.147
307.925
307.701
307.477
307.253
307.032
306.816
306.607
306.408
306.221
306.05
305.899
305.769
305.666
305.593
305.554
305.552
305.591
305.675
323.486
323.468
323.433
323.382
323.314
323.23
323.13
323.017
322.89
322.752
322.604
322.446
322.282
322.111
321.935
321.755
321.572
321.387
321.2
321.014
320.828
320.643
320.46
320.28
320.102
319.928
319.758
319.592
319.429
319.272
319.118
318.969
318.825
318.685
318.549
318.417
318.29
318.166
318.045
317.928
317.815
317.704
317.596
317.49
317.387
317.286
317.187
317.09
316.995
316.901
316.809
316.718
316.628
316.54
316.453
316.366
316.281
316.196
316.113
316.03
315.948
315.867
315.786
315.706
315.627
315.548
315.47
315.393
315.316
315.239
315.164
315.088
315.013
314.939
314.865
314.792
314.719
314.646
314.574
314.502
314.43
314.359
314.288
314.217
314.147
314.076
314.006
313.936
313.866
313.797
313.727
313.657
313.587
313.517
313.447
313.377
313.306
313.235
313.163
313.091
313.019
312.945
312.871
312.796
312.72
312.643
312.564
312.484
312.403
312.319
312.234
312.147
312.057
311.965
311.87
311.772
311.671
311.566
311.457
311.345
311.228
311.107
310.98
310.849
310.712
310.568
310.419
310.263
310.101
309.931
309.753
309.568
309.376
309.175
308.966
308.748
308.523
308.29
308.049
307.8
307.545
307.283
307.017
306.746
306.472
306.198
305.924
305.653
305.388
305.131
304.885
304.655
304.443
304.254
304.092
303.96
303.864
303.808
303.797
303.834
323.485
323.467
323.433
323.382
323.314
323.229
323.13
323.016
322.89
322.751
322.603
322.446
322.281
322.11
321.934
321.754
321.571
321.386
321.2
321.013
320.827
320.642
320.459
320.279
320.101
319.927
319.757
319.59
319.428
319.27
319.117
318.968
318.823
318.683
318.547
318.415
318.287
318.163
318.043
317.925
317.811
317.7
317.592
317.486
317.383
317.282
317.183
317.085
316.99
316.896
316.803
316.712
316.622
316.533
316.445
316.358
316.273
316.188
316.103
316.02
315.937
315.856
315.774
315.694
315.614
315.534
315.455
315.377
315.299
315.222
315.145
315.068
314.992
314.917
314.841
314.767
314.692
314.618
314.544
314.47
314.397
314.324
314.251
314.178
314.105
314.032
313.96
313.887
313.814
313.742
313.669
313.596
313.522
313.449
313.375
313.3
313.225
313.15
313.074
312.997
312.919
312.84
312.76
312.679
312.596
312.512
312.426
312.339
312.249
312.157
312.063
311.967
311.867
311.765
311.659
311.549
311.436
311.319
311.197
311.071
310.939
310.802
310.66
310.511
310.356
310.194
310.024
309.847
309.662
309.469
309.267
309.055
308.835
308.605
308.365
308.115
307.855
307.586
307.306
307.017
306.719
306.413
306.099
305.778
305.453
305.123
304.793
304.463
304.137
303.817
303.507
303.211
302.933
302.677
302.449
302.252
302.093
301.976
301.907
301.89
323.503
323.485
323.45
323.398
323.329
323.244
323.143
323.028
322.9
322.76
322.611
322.452
322.286
322.114
321.937
321.756
321.572
321.386
321.198
321.011
320.824
320.639
320.455
320.274
320.096
319.922
319.751
319.584
319.422
319.264
319.11
318.961
318.816
318.676
318.54
318.409
318.281
318.157
318.036
317.919
317.805
317.694
317.586
317.48
317.377
317.275
317.176
317.079
316.983
316.889
316.796
316.704
316.614
316.525
316.437
316.35
316.263
316.178
316.093
316.009
315.926
315.844
315.762
315.68
315.6
315.519
315.44
315.36
315.282
315.203
315.125
315.048
314.971
314.894
314.817
314.741
314.665
314.589
314.514
314.439
314.363
314.288
314.213
314.138
314.063
313.988
313.913
313.838
313.762
313.687
313.611
313.535
313.458
313.381
313.303
313.224
313.145
313.065
312.984
312.902
312.819
312.735
312.649
312.562
312.473
312.382
312.289
312.194
312.097
311.997
311.894
311.789
311.679
311.567
311.45
311.33
311.205
311.075
310.94
310.8
310.654
310.502
310.343
310.178
310.004
309.823
309.634
309.436
309.229
309.012
308.785
308.547
308.299
308.039
307.768
307.485
307.19
306.883
306.564
306.233
305.89
305.537
305.173
304.8
304.419
304.032
303.641
303.247
302.855
302.466
302.086
301.717
301.366
301.036
300.733
300.463
300.232
300.046
299.911
299.833
323.538
323.52
323.484
323.431
323.36
323.273
323.17
323.052
322.921
322.779
322.627
322.466
322.297
322.123
321.943
321.76
321.574
321.386
321.197
321.008
320.819
320.633
320.448
320.266
320.087
319.912
319.74
319.573
319.411
319.252
319.099
318.95
318.805
318.665
318.529
318.398
318.27
318.146
318.026
317.909
317.796
317.685
317.577
317.471
317.368
317.267
317.167
317.07
316.974
316.88
316.787
316.695
316.605
316.515
316.427
316.34
316.253
316.167
316.082
315.998
315.914
315.831
315.748
315.666
315.585
315.504
315.423
315.343
315.264
315.184
315.106
315.027
314.949
314.871
314.793
314.715
314.638
314.561
314.483
314.406
314.33
314.253
314.176
314.099
314.021
313.944
313.867
313.789
313.711
313.632
313.553
313.474
313.394
313.313
313.231
313.149
313.066
312.981
312.896
312.809
312.721
312.631
312.54
312.447
312.351
312.254
312.154
312.052
311.947
311.839
311.728
311.613
311.495
311.372
311.245
311.114
310.977
310.835
310.688
310.534
310.374
310.206
310.032
309.849
309.658
309.459
309.249
309.03
308.801
308.56
308.308
308.045
307.768
307.479
307.176
306.859
306.528
306.183
305.823
305.449
305.061
304.658
304.242
303.814
303.374
302.925
302.468
302.006
301.542
301.078
300.62
300.172
299.738
299.326
298.94
298.587
298.275
298.01
297.8
297.651
323.593
323.573
323.536
323.481
323.407
323.317
323.21
323.089
322.954
322.807
322.651