/*--------------------------------*- C++ -*----------------------------------*\
| =========                 |                                                 |
| \\      /  F ield         | OpenFOAM: The Open Source CFD Toolbox           |
|  \\    /   O peration     | Version:  2306                                  |
|   \\  /    A nd           | Website:  www.openfoam.com                      |
|    \\/     M anipulation  |                                                 |
\*---------------------------------------------------------------------------*/
FoamFile
{
    version     2.0;
    format      ascii;
    arch        "LSB;label=32;scalar=64";
    class       surfaceScalarField;
    location    "0.45";
    object      phi;
}
// * * * * * * * * * * * * * * * * * * * * * * * * * * * * * * * * * * * * * //

dimensions      [0 3 -1 0 0 0 0];

oriented        oriented;

internalField   nonuniform List<scalar> 
34640
(
0.0049244
7.55987e-05
0.00478599
0.000138414
0.00463052
0.000155467
0.00447385
0.000156669
0.00431583
0.000158023
0.00415467
0.000161162
0.00399075
0.00016392
0.00382542
0.00016533
0.00366031
0.000165105
0.00349681
0.000163498
0.00333583
0.000160982
0.00317796
0.000157867
0.00302375
0.000154218
0.00287375
0.000149992
0.00272862
0.000145136
0.00258899
0.000139632
0.00245555
0.000133442
0.0023289
0.00012665
0.0022094
0.000119491
0.00209747
0.000111939
0.00199339
0.000104075
0.00189738
9.60095e-05
0.00180952
8.78651e-05
0.00172975
7.97706e-05
0.00165789
7.18535e-05
0.00159366
6.42329e-05
0.00153665
5.70132e-05
0.00148637
5.02794e-05
0.00144227
4.40937e-05
0.00140378
3.84957e-05
0.00137028
3.35021e-05
0.00134117
2.91099e-05
0.00131587
2.52987e-05
0.00129383
2.20357e-05
0.00127455
1.92784e-05
0.00125757
1.69785e-05
0.00124249
1.5081e-05
0.00122897
1.35222e-05
0.00121672
1.22523e-05
0.00120549
1.1231e-05
0.00119507
1.04214e-05
0.00118528
9.78811e-06
0.00117598
9.29856e-06
0.00116706
8.92366e-06
0.00115842
8.63864e-06
0.00114999
8.42289e-06
0.00114173
8.25958e-06
0.0011336
8.13513e-06
0.00112556
8.03872e-06
0.0011176
7.96182e-06
0.0011097
7.89786e-06
0.00110186
7.84188e-06
0.00109407
7.7903e-06
0.00108633
7.74061e-06
0.00107864
7.69116e-06
0.001071
7.641e-06
0.00106341
7.5897e-06
0.00105587
7.53721e-06
0.00104839
7.48376e-06
0.00104096
7.42977e-06
0.00103358
7.37582e-06
0.00102626
7.32254e-06
0.00101899
7.27064e-06
0.00101177
7.22081e-06
0.00100459
7.17377e-06
0.000997462
7.13021e-06
0.000990371
7.09078e-06
0.000983315
7.0561e-06
0.000976288
7.02677e-06
0.000969285
7.00334e-06
0.000962299
6.98629e-06
0.000955323
6.97609e-06
0.00094835
6.97315e-06
0.000941372
6.97788e-06
0.000934381
6.99073e-06
0.000927369
7.01208e-06
0.000920327
7.04234e-06
0.000913245
7.08187e-06
0.000906114
7.13105e-06
0.000898923
7.19024e-06
0.000891664
7.25979e-06
0.000884324
7.34008e-06
0.000876892
7.43146e-06
0.000869358
7.5343e-06
0.000861709
7.64899e-06
0.000853933
7.77591e-06
0.000846018
7.91544e-06
0.00083795
8.06799e-06
0.000829716
8.23395e-06
0.000821302
8.41373e-06
0.000812694
8.60773e-06
0.000803878
8.81635e-06
0.000794838
9.04e-06
0.000785559
9.27906e-06
0.000776025
9.53389e-06
0.00076622
9.80486e-06
0.000756128
1.00923e-05
0.000745732
1.03964e-05
0.000735014
1.07175e-05
0.000723959
1.10556e-05
0.000712548
1.1411e-05
0.000700764
1.17834e-05
0.000688591
1.21729e-05
0.000676012
1.2579e-05
0.000663011
1.30014e-05
0.000649571
1.34397e-05
0.000635678
1.3893e-05
0.000621318
1.43604e-05
0.000606477
1.48404e-05
0.000591146
1.53315e-05
0.000575314
1.58317e-05
0.000558975
1.63388e-05
0.000542125
1.685e-05
0.000524763
1.73621e-05
0.000506892
1.78714e-05
0.000488518
1.83735e-05
0.000469655
1.88638e-05
0.000450318
1.93368e-05
0.000430531
1.97867e-05
0.000410324
2.0207e-05
0.000389733
2.05908e-05
0.000368803
2.09307e-05
0.000347584
2.12191e-05
0.000326135
2.14482e-05
0.000304525
2.16102e-05
0.000282828
2.16976e-05
0.000261124
2.17037e-05
0.000239502
2.16223e-05
0.000218053
2.14487e-05
0.000196873
2.11793e-05
0.000176061
2.08124e-05
0.000155714
2.03474e-05
0.000135928
1.97854e-05
0.0001168
1.91283e-05
9.84214e-05
1.83784e-05
8.08843e-05
1.75371e-05
6.42794e-05
1.66049e-05
4.86976e-05
1.55818e-05
3.42277e-05
1.44699e-05
2.09509e-05
1.32767e-05
8.93132e-06
1.20196e-05
-1.81034e-06
1.07417e-05
-1.12793e-05
9.46893e-06
-1.95263e-05
8.24704e-06
-2.66348e-05
7.10843e-06
-3.26856e-05
6.05084e-06
-3.7727e-05
5.04134e-06
-4.17649e-05
4.0379e-06
-4.47862e-05
3.02125e-06
-4.68102e-05
2.02396e-06
-4.7941e-05
1.1307e-06
-4.83552e-05
4.14232e-07
-4.82129e-05
-1.4233e-07
-4.75777e-05
-6.35265e-07
-4.64577e-05
-1.11993e-06
-4.49133e-05
-1.5444e-06
-4.30744e-05
-1.83886e-06
-4.10143e-05
-2.06007e-06
-3.86831e-05
-2.33122e-06
-2.72518e-06
-3.59579e-05
0.00503752
3.80748e-05
0.0050774
9.85348e-05
0.00509715
0.00013572
0.00510102
0.000152795
0.00509795
0.000161096
0.00509063
0.000168478
0.0050778
0.000176757
0.00505833
0.000184798
0.00503218
0.000191259
0.005
0.000195672
0.00496268
0.000198302
0.00492096
0.000199591
0.00487537
0.000199809
0.00482632
0.000199042
0.00477418
0.000197272
0.00471935
0.000194459
0.0046622
0.000190594
0.00460311
0.000185743
0.00454259
0.000180009
0.00448106
0.000173464
0.00441894
0.0001662
0.00435661
0.000158338
0.00429446
0.00015002
0.00423282
0.000141403
0.00417203
0.000132646
0.00411236
0.000123904
0.00405405
0.000115322
0.0039973
0.000107028
0.00394227
9.91263e-05
0.00388907
9.17005e-05
0.00383776
8.48063e-05
0.00378839
7.84781e-05
0.00374097
7.27264e-05
0.00369546
6.75464e-05
0.00365182
6.29157e-05
0.00360998
5.88137e-05
0.00356982
5.52461e-05
0.00353129
5.20514e-05
0.00349432
4.92227e-05
0.00345881
4.67359e-05
0.00342468
4.4553e-05
0.00339183
4.26364e-05
0.00336018
4.09502e-05
0.00332964
3.94615e-05
0.00330014
3.81406e-05
0.0032716
3.69621e-05
0.00324396
3.59035e-05
0.00321715
3.49462e-05
0.00319111
3.4074e-05
0.0031658
3.32736e-05
0.00314116
3.25339e-05
0.00311716
3.18459e-05
0.00309375
3.12023e-05
0.00307089
3.05972e-05
0.00304856
3.00261e-05
0.00302671
2.94855e-05
0.00300533
2.89729e-05
0.00298438
2.84861e-05
0.00296384
2.80239e-05
0.00294368
2.75853e-05
0.00292389
2.71697e-05
0.00290444
2.67768e-05
0.0028853
2.64064e-05
0.00286646
2.60586e-05
0.0028479
2.57335e-05
0.0028296
2.54316e-05
0.00281154
2.5153e-05
0.0027937
2.48983e-05
0.00277606
2.46679e-05
0.0027586
2.44623e-05
0.0027413
2.4282e-05
0.00272415
2.41273e-05
0.00270712
2.39988e-05
0.00269021
2.38971e-05
0.00267337
2.38229e-05
0.00265661
2.37768e-05
0.00263989
2.37596e-05
0.0026232
2.37721e-05
0.00260652
2.38149e-05
0.00258982
2.3889e-05
0.00257308
2.39952e-05
0.00255629
2.41345e-05
0.00253941
2.43079e-05
0.00252243
2.45164e-05
0.00250532
2.47611e-05
0.00248805
2.50432e-05
0.0024706
2.5364e-05
0.00245295
2.57248e-05
0.00243505
2.61269e-05
0.00241689
2.65718e-05
0.00239844
2.7061e-05
0.00237966
2.7596e-05
0.00236052
2.81784e-05
0.00234099
2.881e-05
0.00232103
2.94925e-05
0.00230061
3.02276e-05
0.00227969
3.1017e-05
0.00225822
3.18627e-05
0.00223617
3.27663e-05
0.0022135
3.37296e-05
0.00219015
3.47544e-05
0.00216609
3.58422e-05
0.00214127
3.69947e-05
0.00211564
3.82128e-05
0.00208914
3.94971e-05
0.00206173
4.08497e-05
0.00203336
4.22714e-05
0.00200395
4.37622e-05
0.00197347
4.53217e-05
0.00194185
4.69493e-05
0.00190904
4.86443e-05
0.00187498
5.04047e-05
0.0018396
5.22279e-05
0.00180285
5.41098e-05
0.00176468
5.60457e-05
0.00172502
5.80295e-05
0.00168383
6.00535e-05
0.00164106
6.21086e-05
0.00159666
6.41841e-05
0.0015506
6.6267e-05
0.00150285
6.83424e-05
0.00145339
7.03928e-05
0.00140221
7.23987e-05
0.00134932
7.43373e-05
0.00129475
7.61836e-05
0.00123853
7.79095e-05
0.00118075
7.94838e-05
0.0011215
8.08728e-05
0.00106091
8.20399e-05
0.000999145
8.2946e-05
0.000936408
8.35502e-05
0.000872944
8.38107e-05
0.000809044
8.36857e-05
0.000745037
8.31352e-05
0.000681292
8.21233e-05
0.000618209
8.06204e-05
0.000556207
7.86067e-05
0.000495713
7.60761e-05
0.000437141
7.30411e-05
0.000380881
6.95372e-05
0.000327279
6.56217e-05
0.000276635
6.13851e-05
0.000229188
5.69162e-05
0.000185122
5.23128e-05
0.000144576
4.7655e-05
0.000107631
4.29954e-05
7.42882e-05
3.83842e-05
4.45544e-05
3.37716e-05
1.84853e-05
2.90903e-05
-4.06611e-06
2.45753e-05
-2.33371e-05
2.04016e-05
-3.97227e-05
1.67998e-05
-5.34405e-05
1.35755e-05
-6.46188e-05
1.0543e-05
-7.3407e-05
7.66821e-06
-8.00571e-05
5.10575e-06
-8.48938e-05
2.99792e-06
-8.81439e-05
1.19006e-06
-8.98666e-05
-6.08498e-07
-2.5591e-06
-9.00326e-05
0.00501445
2.36272e-05
0.00504447
6.85094e-05
0.00507418
0.000106011
0.00509859
0.000128388
0.00511781
0.000141877
0.00513503
0.000151254
0.00515196
0.000159827
0.00516818
0.000168575
0.00518272
0.000176723
0.00519492
0.000183472
0.00520465
0.000188572
0.00521208
0.000192158
0.0052174
0.000194495
0.00522066
0.000195783
0.00522183
0.000196102
0.00522084
0.000195444
0.00521764
0.000193794
0.00521223
0.000191159
0.00520467
0.000187566
0.00519503
0.000183107
0.00518337
0.000177854
0.00516981
0.000171904
0.00515445
0.000165376
0.00513745
0.000158403
0.00511897
0.000151128
0.00509918
0.000143692
0.00507827
0.000136233
0.00505642
0.000128878
0.00503381
0.000121736
0.00501061
0.000114901
0.00498697
0.000108442
0.00496304
0.00010241
0.00493893
9.68348e-05
0.00491475
9.17304e-05
0.00489057
8.7096e-05
0.00486646
8.29213e-05
0.00484253
7.91791e-05
0.00481876
7.58148e-05
0.00479519
7.27943e-05
0.00477184
7.00927e-05
0.00474871
6.76827e-05
0.00472581
6.5534e-05
0.00470314
6.36153e-05
0.00468071
6.1897e-05
0.0046585
6.03515e-05
0.0046365
5.89545e-05
0.00461472
5.76846e-05
0.00459315
5.65231e-05
0.00457177
5.54541e-05
0.00455058
5.44643e-05
0.00452957
5.35422e-05
0.00450873
5.26786e-05
0.00448807
5.18657e-05
0.00446757
5.10974e-05
0.00444723
5.0369e-05
0.00442704
4.96766e-05
0.00440699
4.90174e-05
0.00438709
4.83895e-05
0.00436732
4.77915e-05
0.00434768
4.72223e-05
0.00432817
4.66816e-05
0.00430878
4.61693e-05
0.0042895
4.56854e-05
0.00427033
4.52304e-05
0.00425126
4.48049e-05
0.00423228
4.44094e-05
0.00421339
4.40448e-05
0.00419457
4.3712e-05
0.00417583
4.34121e-05
0.00415715
4.31462e-05
0.00413851
4.29155e-05
0.00411992
4.27205e-05
0.00410136
4.25627e-05
0.00408281
4.24432e-05
0.00406427
4.23636e-05
0.00404572
4.23252e-05
0.00402715
4.23296e-05
0.00400854
4.23782e-05
0.00398989
4.24729e-05
0.00397116
4.26152e-05
0.00395235
4.2807e-05
0.00393343
4.30503e-05
0.00391439
4.3347e-05
0.00389521
4.36993e-05
0.00387586
4.41094e-05
0.00385633
4.45797e-05
0.00383658
4.51128e-05
0.00381659
4.57111e-05
0.00379634
4.63776e-05
0.0037758
4.7115e-05
0.00375493
4.79265e-05
0.00373371
4.88152e-05
0.00371211
4.97846e-05
0.00369008
5.08381e-05
0.00366759
5.19793e-05
0.00364461
5.3212e-05
0.00362108
5.45402e-05
0.00359698
5.59679e-05
0.00357225
5.74992e-05
0.00354684
5.91385e-05
0.0035207
6.089e-05
0.00349379
6.27581e-05
0.00346603
6.47472e-05
0.00343738
6.68613e-05
0.00340778
6.91049e-05
0.00337714
7.14825e-05
0.00334542
7.39984e-05
0.00331252
7.66563e-05
0.00327839
7.94594e-05
0.00324292
8.24101e-05
0.00320606
8.55123e-05
0.00316769
8.8768e-05
0.00312774
9.21778e-05
0.00308611
9.57418e-05
0.0030427
9.94589e-05
0.0029974
0.000103326
0.00295012
0.00010734
0.00290073
0.000111494
0.00284914
0.000115779
0.00279522
0.000120185
0.00273886
0.000124697
0.00267996
0.000129298
0.00261839
0.000133968
0.00255405
0.00013868
0.00248682
0.000143405
0.00241663
0.000148107
0.00234337
0.000152744
0.00226697
0.00015727
0.00218738
0.000161629
0.00210457
0.000165759
0.00201852
0.000169591
0.00192929
0.000173046
0.00183694
0.000176038
0.00174159
0.000178479
0.00164344
0.000180273
0.00154275
0.000181318
0.00143984
0.000181508
0.00133518
0.000180741
0.0012293
0.000178917
0.00112289
0.000175951
0.00101674
0.000171773
0.000911782
0.000166342
0.000809048
0.000159649
0.000709631
0.00015173
0.000614614
0.000142673
0.000524984
0.000132625
0.000441571
0.000121797
0.000364886
0.000110457
0.000295021
9.89556e-05
0.000231928
8.76682e-05
0.000175437
7.68922e-05
0.00012544
6.67972e-05
8.15668e-05
5.74485e-05
4.37456e-05
4.83643e-05
1.15462e-05
3.98676e-05
-1.55548e-05
3.22067e-05
-3.82629e-05
2.57061e-05
-5.69401e-05
1.98673e-05
-7.1861e-05
1.43124e-05
8.92138e-06
-8.33414e-05
0.00500634
1.72885e-05
0.00502385
5.09992e-05
0.00504705
8.28144e-05
0.00506939
0.000106043
0.00508908
0.000122187
0.00510686
0.000133478
0.00512443
0.000142249
0.00514265
0.000150363
0.00516108
0.000158285
0.00517925
0.000165303
0.00519682
0.000171002
0.00521368
0.000175302
0.00522985
0.000178325
0.00524536
0.00018027
0.00526017
0.000181293
0.00527418
0.000181438
0.00528726
0.000180714
0.00529929
0.000179121
0.00531018
0.000176681
0.00531984
0.000173451
0.00532819
0.000169499
0.00533519
0.000164904
0.0053408
0.000159764
0.00534502
0.000154185
0.00534787
0.000148282
0.00534939
0.000142173
0.00534964
0.000135975
0.00534872
0.000129796
0.00534673
0.000123736
0.00534375
0.000117876
0.0053399
0.000112288
0.00533529
0.00010702
0.00533002
0.00010211
0.00532417
9.75774e-05
0.00531784
9.34289e-05
0.0053111
8.96574e-05
0.00530404
8.62461e-05
0.00529668
8.31737e-05
0.00528906
8.04125e-05
0.00528121
7.79373e-05
0.00527317
7.57243e-05
0.00526496
7.37493e-05
0.00525658
7.19874e-05
0.00524807
7.04135e-05
0.00523942
6.9004e-05
0.00523063
6.77372e-05
0.00522172
6.65935e-05
0.00521269
6.55559e-05
0.00520354
6.46094e-05
0.00519426
6.37414e-05
0.00518486
6.29409e-05
0.00517534
6.21989e-05
0.0051657
6.15079e-05
0.00515593
6.08616e-05
0.00514605
6.02552e-05
0.00513604
5.96849e-05
0.00512591
5.91477e-05
0.00511566
5.86416e-05
0.00510528
5.8165e-05
0.00509479
5.77171e-05
0.00508417
5.72976e-05
0.00507344
5.69062e-05
0.00506258
5.65435e-05
0.0050516
5.62098e-05
0.0050405
5.59061e-05
0.00502927
5.56334e-05
0.00501792
5.53927e-05
0.00500645
5.51854e-05
0.00499485
5.5013e-05
0.00498312
5.48771e-05
0.00497126
5.47793e-05
0.00495926
5.47209e-05
0.00494711
5.47037e-05
0.00493483
5.47298e-05
0.00492239
5.48011e-05
0.0049098
5.49198e-05
0.00489704
5.50882e-05
0.00488411
5.53085e-05
0.004871
5.55833e-05
0.0048577
5.59151e-05
0.0048442
5.63067e-05
0.00483049
5.67609e-05
0.00481655
5.72808e-05
0.00480238
5.78695e-05
0.00478796
5.85304e-05
0.00477327
5.92671e-05
0.0047583
6.00832e-05
0.00474303
6.09826e-05
0.00472744
6.19697e-05
0.00471151
6.30486e-05
0.00469521
6.4224e-05
0.00467852
6.55007e-05
0.00466142
6.68838e-05
0.00464388
6.83786e-05
0.00462587
6.99907e-05
0.00460736
7.17259e-05
0.00458831
7.35904e-05
0.00456869
7.55904e-05
0.00454845
7.77327e-05
0.00452757
8.0024e-05
0.00450599
8.24716e-05
0.00448366
8.50826e-05
0.00446054
8.78646e-05
0.00443658
9.08254e-05
0.00441171
9.39727e-05
0.00438588
9.73148e-05
0.00435902
0.00010086
0.00433106
0.000104616
0.00430193
0.00010859
0.00427155
0.000112792
0.00423983
0.000117228
0.00420669
0.000121906
0.00417204
0.000126832
0.00413577
0.000132013
0.00409777
0.000137454
0.00405794
0.000143158
0.00401615
0.000149129
0.00397228
0.000155366
0.00392619
0.000161869
0.00387774
0.000168634
0.00382678
0.000175655
0.00377316
0.000182922
0.0037167
0.000190422
0.00365725
0.000198135
0.00359461
0.000206039
0.00352862
0.000214104
0.00345907
0.000222294
0.00338577
0.000230566
0.00330854
0.000238866
0.00322716
0.000247133
0.00314146
0.000255294
0.00305124
0.000263265
0.00295634
0.00027094
0.0028566
0.000278217
0.00275189
0.000284983
0.00264211
0.000291098
0.0025272
0.000296413
0.00240718
0.000300768
0.0022821
0.000303992
0.00215215
0.000305906
0.0020176
0.000306323
0.00187888
0.00030506
0.00173658
0.000301945
0.0015915
0.000296813
0.00144467
0.000289506
0.0012974
0.000279895
0.00115129
0.000267904
0.00100821
0.00025354
0.000870234
0.000236928
0.000739554
0.000218347
0.000618205
0.000198242
0.000507794
0.000177207
0.000409327
0.000155916
0.000322548
0.000135143
0.000246743
0.000115672
0.000180897
9.8053e-05
0.000124044
8.25596e-05
7.56248e-05
6.82862e-05
3.48437e-05
5.50936e-05
4.29166e-05
8.48554e-07
0.00500365
1.36379e-05
0.00501435
4.03031e-05
0.00503119
6.5976e-05
0.00504934
8.78852e-05
0.00506702
0.00010451
0.00508362
0.000116874
0.00509961
0.000126267
0.00511581
0.000134164
0.00513256
0.000141531
0.00514965
0.000148213
0.00516675
0.000153905
0.00518365
0.000158394
0.0052003
0.000161681
0.00521666
0.000163902
0.00523276
0.000165199
0.00524854
0.000165658
0.00526393
0.000165325
0.00527883
0.000164221
0.00529314
0.000162373
0.00530676
0.000159823
0.00531963
0.000156631
0.00533167
0.000152869
0.00534281
0.000148618
0.00535303
0.000143968
0.0053623
0.000139015
0.00537061
0.000133857
0.00537799
0.000128592
0.00538448
0.000123311
0.00539012
0.000118099
0.00539496
0.000113029
0.00539909
0.000108163
0.00540256
0.000103549
0.00540545
9.92205e-05
0.00540783
9.51998e-05
0.00540976
9.14967e-05
0.00541131
8.81102e-05
0.00541252
8.50331e-05
0.00541344
8.22537e-05
0.0054141
7.97535e-05
0.00541452
7.75114e-05
0.00541474
7.55062e-05
0.00541477
7.37179e-05
0.00541463
7.21259e-05
0.00541434
7.07098e-05
0.00541389
6.94499e-05
0.0054133
6.83271e-05
0.00541257
6.73244e-05
0.0054117
6.64262e-05
0.00541069
6.5619e-05
0.00540954
6.4891e-05
0.00540825
6.4232e-05
0.00540682
6.36333e-05
0.00540524
6.30878e-05
0.00540351
6.25892e-05
0.00540163
6.21328e-05
0.0053996
6.17146e-05
0.00539742
6.13317e-05
0.00539508
6.09817e-05
0.00539258
6.06631e-05
0.00538992
6.03748e-05
0.0053871
6.01164e-05
0.00538412
5.98878e-05
0.00538098
5.96891e-05
0.00537766
5.9521e-05
0.00537419
5.93843e-05
0.00537054
5.92801e-05
0.00536672
5.92096e-05
0.00536273
5.91743e-05
0.00535857
5.91758e-05
0.00535423
5.92159e-05
0.00534971
5.92964e-05
0.00534502
5.94191e-05
0.00534013
5.95862e-05
0.00533506
5.97999e-05
0.0053298
6.00627e-05
0.00532434
6.03772e-05
0.00531869
6.0746e-05
0.00531282
6.1172e-05
0.00530675
6.16583e-05
0.00530046
6.22079e-05
0.00529394
6.28243e-05
0.00528719
6.3511e-05
0.0052802
6.42717e-05
0.00527296
6.51103e-05
0.00526546
6.60311e-05
0.00525768
6.70383e-05
0.00524963
6.81367e-05
0.00524128
6.93312e-05
0.00523263
7.0627e-05
0.00522364
7.20294e-05
0.00521432
7.35444e-05
0.00520465
7.51779e-05
0.00519459
7.69365e-05
0.00518415
7.88268e-05
0.00517328
8.08561e-05
0.00516197
8.30317e-05
0.0051502
8.53616e-05
0.00513794
8.7854e-05
0.00512516
9.05175e-05
0.00511182
9.33613e-05
0.00509789
9.63946e-05
0.00508335
9.96274e-05
0.00506814
0.00010307
0.00505224
0.000106733
0.00503558
0.000110627
0.00501813
0.000114764
0.00499984
0.000119155
0.00498064
0.000123813
0.00496048
0.000128749
0.0049393
0.000133976
0.00491702
0.000139507
0.00489357
0.000145354
0.00486887
0.00015153
0.00484284
0.000158046
0.00481538
0.000164914
0.00478639
0.000172145
0.00475577
0.00017975
0.0047234
0.000187737
0.00468916
0.000196113
0.00465291
0.000204886
0.00461451
0.000214057
0.0045738
0.000223628
0.00453062
0.000233597
0.0044848
0.000243958
0.00443614
0.000254699
0.00438444
0.000265804
0.00432948
0.000277252
0.00427104
0.000289011
0.00420886
0.000301045
0.00414269
0.000313304
0.00407225
0.000325732
0.00399726
0.000338254
0.00391741
0.000350787
0.00383239
0.000363236
0.00374189
0.000375489
0.00364557
0.000387417
0.00354311
0.000398869
0.0034342
0.000409679
0.00331853
0.00041966
0.00319583
0.000428606
0.00306587
0.000436287
0.0029285
0.000442434
0.00278364
0.000446802
0.00263132
0.000449132
0.00247172
0.000449107
0.0023052
0.00044642
0.00213233
0.00044077
0.00195398
0.000431887
0.00177136
0.000419551
0.00158611
0.000403602
0.00140042
0.00038393
0.0012171
0.000360522
0.00103949
0.000333528
0.000871274
0.000303361
0.00071613
0.000270816
0.000577096
0.000237087
0.000456109
0.000203547
0.000352782
0.000171613
0.000265318
0.000142558
0.000117076
0.000191158
0.00500249
1.11484e-05
0.00500982
3.29722e-05
0.00502171
5.40911e-05
0.00503621
7.33812e-05
0.00505142
8.9303e-05
0.00506648
0.000101814
0.00508114
0.000111609
0.00509573
0.000119566
0.00511075
0.000126516
0.00512619
0.000132768
0.00514189
0.000138211
0.00515762
0.000142662
0.00517324
0.00014606
0.00518869
0.00014845
0.00520396
0.000149932
0.00521902
0.0001506
0.00523382
0.000150523
0.0052483
0.000149744
0.00526237
0.000148299
0.00527597
0.000146228
0.00528902
0.000143583
0.00530146
0.000140426
0.00531325
0.00013683
0.00532435
0.00013287
0.00533473
0.00012863
0.0053444
0.000124193
0.00535335
0.000119642
0.0053616
0.000115055
0.0053692
0.000110505
0.00537617
0.000106055
0.00538257
0.00010176
0.00538846
9.76636e-05
0.00539388
9.37985e-05
0.0053989
9.01865e-05
0.00540355
8.68398e-05
0.0054079
8.37626e-05
0.00541198
8.09529e-05
0.00541583
7.84037e-05
0.00541948
7.61029e-05
0.00542296
7.40343e-05
0.00542628
7.21805e-05
0.00542948
7.05245e-05
0.00543255
6.90494e-05
0.00543552
6.77385e-05
0.0054384
6.65751e-05
0.00544118
6.55432e-05
0.00544388
6.46279e-05
0.00544649
6.38155e-05
0.00544902
6.30937e-05
0.00545145
6.24519e-05
0.00545381
6.18806e-05
0.00545607
6.13719e-05
0.00545824
6.09187e-05
0.00546031
6.05153e-05
0.00546229
6.01571e-05
0.00546416
5.984e-05
0.00546593
5.95612e-05
0.00546759
5.93183e-05
0.00546915
5.91096e-05
0.00547059
5.89341e-05
0.00547191
5.87911e-05
0.00547312
5.86804e-05
0.00547421
5.86022e-05
0.00547517
5.85571e-05
0.00547601
5.85458e-05
0.00547672
5.85694e-05
0.0054773
5.86292e-05
0.00547775
5.87266e-05
0.00547806
5.88632e-05
0.00547824
5.9041e-05
0.00547827
5.92618e-05
0.00547816
5.95278e-05
0.00547791
5.98412e-05
0.0054775
6.02044e-05
0.00547695
6.06202e-05
0.00547623
6.10913e-05
0.00547536
6.16207e-05
0.00547432
6.22116e-05
0.00547311
6.28672e-05
0.00547173
6.35911e-05
0.00547016
6.4387e-05
0.00546842
6.5259e-05
0.00546648
6.6211e-05
0.00546434
6.72476e-05
0.005462
6.83735e-05
0.00545944
6.95935e-05
0.00545666
7.0913e-05
0.00545366
7.23374e-05
0.00545041
7.38727e-05
0.00544692
7.55251e-05
0.00544316
7.7301e-05
0.00543913
7.92075e-05
0.00543482
8.12518e-05
0.0054302
8.34418e-05
0.00542527
8.57856e-05
0.00542001
8.82917e-05
0.0054144
9.09693e-05
0.00540843
9.3828e-05
0.00540207
9.68777e-05
0.0053953
0.000100129
0.0053881
0.000103593
0.00538045
0.000107282
0.00537231
0.000111207
0.00536366
0.000115381
0.00535447
0.000119819
0.0053447
0.000124532
0.00533432
0.000129536
0.00532329
0.000134846
0.00531156
0.000140478
0.00529909
0.000146446
0.00528583
0.000152768
0.00527172
0.00015946
0.00525672
0.000166539
0.00524074
0.000174022
0.00522373
0.000181926
0.0052056
0.000190268
0.00518629
0.000199066
0.00516569
0.000208334
0.00514371
0.00021809
0.00512025
0.000228346
0.00509519
0.000239117
0.00506841
0.000250413
0.00503976
0.000262244
0.00500911
0.000274616
0.00497627
0.000287531
0.00494109
0.000300989
0.00490336
0.000314984
0.00486287
0.000329502
0.00481938
0.000344525
0.00477266
0.000360026
0.00472243
0.000375968
0.00466838
0.000392304
0.00461019
0.000408975
0.00454752
0.000425909
0.00447998
0.000443021
0.00440719
0.000460207
0.00432872
0.000477345
0.00424411
0.000494291
0.00415288
0.000510881
0.00405457
0.000526923
0.00394866
0.000542197
0.00383463
0.000556456
0.003712
0.000569435
0.0035803
0.000580838
0.00343908
0.000590326
0.00328796
0.000597533
0.00312667
0.000602061
0.00295509
0.000603467
0.0027733
0.000601343
0.0025816
0.000595297
0.00238068
0.000584855
0.0021716
0.000569598
0.00195593
0.000549198
0.00173583
0.000523461
0.00151433
0.000492312
0.00129557
0.00045585
0.00108468
0.000414433
0.000887441
0.000368858
0.000709379
0.00032062
0.000271947
0.000554508
0.00500185
9.29987e-06
0.00500728
2.7539e-05
0.00501604
4.53328e-05
0.00502755
6.18692e-05
0.00504038
7.64711e-05
0.00505372
8.84766e-05
0.00506711
9.8216e-05
0.00508051
0.000106167
0.00509416
0.000112874
0.00510819
0.000118736
0.00512255
0.000123849
0.00513708
0.000128132
0.00515162
0.000131516
0.00516608
0.000133992
0.0051804
0.000135612
0.00519455
0.000136452
0.00520849
0.000136587
0.00522216
0.000136073
0.0052355
0.000134955
0.00524845
0.000133276
0.00526095
0.000131082
0.00527295
0.000128427
0.00528441
0.000125374
0.00529529
0.000121989
0.00530558
0.000118344
0.00531526
0.000114509
0.00532435
0.000110557
0.00533285
0.000106555
0.00534079
0.000102564
0.0053482
9.86424e-05
0.00535512
9.48365e-05
0.0053616
9.11864e-05
0.00536768
8.77224e-05
0.0053734
8.44664e-05
0.0053788
8.14323e-05
0.00538394
7.86272e-05
0.00538884
7.60526e-05
0.00539354
7.37047e-05
0.00539806
7.15756e-05
0.00540245
6.96536e-05
0.0054067
6.79252e-05
0.00541085
6.63764e-05
0.00541491
6.49933e-05
0.00541888
6.37619e-05
0.00542279
6.26686e-05
0.00542663
6.16999e-05
0.00543042
6.08428e-05
0.00543415
6.00855e-05
0.00543782
5.94172e-05
0.00544145
5.8828e-05
0.00544502
5.83096e-05
0.00544853
5.78546e-05
0.005452
5.74566e-05
0.0054554
5.71101e-05
0.00545875
5.68108e-05
0.00546203
5.65549e-05
0.00546526
5.63395e-05
0.00546841
5.61624e-05
0.0054715
5.60219e-05
0.00547452
5.59169e-05
0.00547746
5.58467e-05
0.00548033
5.58112e-05
0.00548312
5.58105e-05
0.00548583
5.5845e-05
0.00548846
5.59155e-05
0.00549101
5.60231e-05
0.00549347
5.6169e-05
0.00549584
5.63548e-05
0.00549812
5.6582e-05
0.00550031
5.68525e-05
0.00550241
5.71684e-05
0.0055044
5.75319e-05
0.0055063
5.79453e-05
0.00550809
5.84112e-05
0.00550978
5.89325e-05
0.00551136
5.95119e-05
0.00551283
6.01526e-05
0.00551418
6.0858e-05
0.00551541
6.16316e-05
0.00551653
6.24771e-05
0.00551752
6.33985e-05
0.00551838
6.43999e-05
0.0055191
6.54859e-05
0.00551969
6.6661e-05
0.00552013
6.79304e-05
0.00552043
6.92992e-05
0.00552057
7.07731e-05
0.00552054
7.23581e-05
0.00552036
7.40603e-05
0.00552
7.58864e-05
0.00551945
7.78436e-05
0.00551872
7.99392e-05
0.00551779
8.2181e-05
0.00551666
8.45775e-05
0.00551531
8.71375e-05
0.00551373
8.98701e-05
0.00551191
9.27853e-05
0.00550985
9.58935e-05
0.00550752
9.92054e-05
0.00550491
0.000102733
0.00550202
0.000106487
0.00549882
0.000110482
0.0054953
0.000114731
0.00549143
0.000119247
0.0054872
0.000124046
0.00548259
0.000129142
0.00547758
0.000134552
0.00547213
0.000140293
0.00546623
0.000146382
0.00545984
0.000152837
0.00545293
0.000159678
0.00544546
0.000166923
0.00543741
0.000174593
0.00542872
0.000182709
0.00541936
0.00019129
0.00540927
0.00020036
0.00539839
0.000209938
0.00538668
0.000220047
0.00537406
0.000230708
0.00536047
0.000241942
0.00534581
0.00025377
0.00533001
0.000266211
0.00531297
0.000279285
0.00529458
0.000293007
0.00527472
0.000307392
0.00525326
0.000322452
0.00523005
0.000338196
0.00520492
0.000354628
0.0051777
0.000371746
0.00514818
0.000389544
0.00511614
0.000408009
0.00508133
0.000427118
0.00504346
0.00044684
0.00500224
0.000467134
0.00495732
0.000487944
0.00490832
0.000509203
0.00485484
0.000530825
0.00479643
0.000552706
0.00473258
0.000574722
0.00466278
0.000596723
0.00458645
0.000618534
0.00450295
0.000639954
0.00441164
0.000660749
0.00431182
0.000680651
0.00420279
0.000699355
0.00408382
0.000716507
0.00395417
0.000731711
0.00381312
0.000744521
0.00365999
0.000754471
0.00349424
0.000761049
0.0033154
0.00076369
0.00312321
0.000761788
0.00291773
0.000754681
0.00269934
0.000741854
0.00246895
0.000722699
0.00222817
0.000696628
0.00197935
0.000663257
0.00172575
0.000622454
0.00147204
0.000574332
0.000519343
0.00122464
0.00500144
7.86098e-06
0.00500568
2.33026e-05
0.00501255
3.84551e-05
0.00502174
5.26815e-05
0.00503256
6.56469e-05
0.00504425
7.67953e-05
0.00505635
8.61123e-05
0.00506867
9.38462e-05
0.00508122
0.000100325
0.00509409
0.000105865
0.00510729
0.000110647
0.00512073
0.000114694
0.00513428
0.000117969
0.00514782
0.000120447
0.00516129
0.000122147
0.00517462
0.00012312
0.00518777
0.000123433
0.0052007
0.000123143
0.00521335
0.000122302
0.00522567
0.000120955
0.00523761
0.000119145
0.00524912
0.000116922
0.00526015
0.000114337
0.00527069
0.00011145
0.00528071
0.000108321
0.00529021
0.000105013
0.00529918
0.000101585
0.00530764
9.80976e-05
0.0053156
9.4604e-05
0.00532309
9.11531e-05
0.00533014
8.77877e-05
0.00533678
8.4543e-05
0.00534306
8.14476e-05
0.005349
7.85226e-05
0.00535465
7.57827e-05
0.00536004
7.32366e-05
0.00536521
7.08877e-05
0.00537018
6.87352e-05
0.00537498
6.67738e-05
0.00537963
6.49957e-05
0.00538417
6.33906e-05
0.0053886
6.19477e-05
0.00539294
6.06554e-05
0.0053972
5.95024e-05
0.00540139
5.8477e-05
0.00540552
5.75682e-05
0.0054096
5.67648e-05
0.00541363
5.60567e-05
0.00541761
5.54344e-05
0.00542155
5.48892e-05
0.00542544
5.44135e-05
0.0054293
5.40007e-05
0.00543311
5.3645e-05
0.00543688
5.33413e-05
0.0054406
5.30857e-05
0.00544428
5.28746e-05
0.00544792
5.27053e-05
0.0054515
5.25756e-05
0.00545504
5.24841e-05
0.00545853
5.24296e-05
0.00546196
5.24115e-05
0.00546535
5.24297e-05
0.00546867
5.24842e-05
0.00547194
5.25755e-05
0.00547515
5.27044e-05
0.0054783
5.28719e-05
0.00548139
5.30794e-05
0.00548442
5.33282e-05
0.00548738
5.36201e-05
0.00549028
5.39569e-05
0.00549311
5.43409e-05
0.00549586
5.47741e-05
0.00549855
5.52592e-05
0.00550116
5.57986e-05
0.0055037
5.63953e-05
0.00550616
5.70523e-05
0.00550854
5.77728e-05
0.00551084
5.85602e-05
0.00551305
5.94182e-05
0.00551518
6.03506e-05
0.00551721
6.13615e-05
0.00551916
6.24554e-05
0.00552101
6.36368e-05
0.00552276
6.49105e-05
0.00552441
6.62819e-05
0.00552595
6.77563e-05
0.00552738
6.93395e-05
0.0055287
7.10378e-05
0.00552991
7.28577e-05
0.00553099
7.48059e-05
0.00553194
7.689e-05
0.00553276
7.91175e-05
0.00553345
8.14968e-05
0.00553399
8.40364e-05
0.00553438
8.67455e-05
0.00553462
8.96337e-05
0.00553469
9.27114e-05
0.00553459
9.59893e-05
0.00553432
9.94788e-05
0.00553386
0.000103192
0.00553321
0.000107141
0.00553235
0.00011134
0.00553128
0.000115803
0.00552998
0.000120544
0.00552845
0.000125579
0.00552666
0.000130924
0.00552462
0.000136596
0.0055223
0.000142614
0.00551969
0.000148995
0.00551676
0.000155759
0.00551352
0.000162927
0.00550992
0.00017052
0.00550595
0.000178558
0.0055016
0.000187066
0.00549682
0.000196066
0.0054916
0.000205582
0.0054859
0.000215639
0.00547968
0.000226261
0.00547292
0.000237474
0.00546556
0.000249303
0.00545755
0.000261774
0.00544885
0.000274912
0.0054394
0.000288742
0.00542911
0.000303288
0.00541793
0.000318573
0.00540577
0.000334619
0.00539252
0.000351445
0.00537808
0.000369068
0.00536232
0.000387502
0.00534511
0.000406756
0.00532628
0.000426836
0.00530566
0.000447741
0.00528303
0.000469465
0.00525818
0.000491991
0.00523082
0.000515296
0.00520068
0.000539345
0.00516742
0.000564089
0.00513066
0.000589466
0.00508998
0.000615397
0.00504493
0.000641781
0.00499496
0.0006685
0.00493951
0.000695406
0.00487793
0.000722324
0.00480954
0.000749046
0.00473357
0.000775326
0.0046492
0.000800875
0.00455555
0.000825357