/*--------------------------------*- C++ -*----------------------------------*\
| =========                 |                                                 |
| \\      /  F ield         | OpenFOAM: The Open Source CFD Toolbox           |
|  \\    /   O peration     | Version:  2306                                  |
|   \\  /    A nd           | Website:  www.openfoam.com                      |
|    \\/     M anipulation  |                                                 |
\*---------------------------------------------------------------------------*/
FoamFile
{
    version     2.0;
    format      ascii;
    arch        "LSB;label=32;scalar=64";
    class       volVectorField;
    location    "0.45";
    object      U;
}
// * * * * * * * * * * * * * * * * * * * * * * * * * * * * * * * * * * * * * //

dimensions      [0 1 -1 0 0 0 0];

internalField   nonuniform List<vector> 
17600
(
(9.80708 0.0850068 0)
(9.62282 0.1805 0)
(9.41196 0.217949 0)
(9.14628 0.225578 0)
(8.83439 0.2251 0)
(8.49836 0.225385 0)
(8.15616 0.226736 0)
(7.81672 0.227129 0)
(7.48269 0.225219 0)
(7.15415 0.220818 0)
(6.83067 0.214448 0)
(6.51243 0.206753 0)
(6.20026 0.19816 0)
(5.89551 0.188852 0)
(5.59966 0.178847 0)
(5.31425 0.168129 0)
(5.0406 0.156697 0)
(4.78013 0.144613 0)
(4.53373 0.131894 0)
(4.3022 0.118628 0)
(4.0862 0.104998 0)
(3.88622 0.0912592 0)
(3.70252 0.0777048 0)
(3.53514 0.0646287 0)
(3.38384 0.0523002 0)
(3.24813 0.0409454 0)
(3.12727 0.0307337 0)
(3.02036 0.0217712 0)
(2.92635 0.0141003 0)
(2.8441 0.00770658 0)
(2.7724 0.00252952 0)
(2.71004 -0.00152504 0)
(2.65586 -0.00457103 0)
(2.60871 -0.00673298 0)
(2.56756 -0.00813346 0)
(2.53144 -0.0088943 0)
(2.49949 -0.0091251 0)
(2.47097 -0.00895673 0)
(2.44527 -0.00851035 0)
(2.42186 -0.00787986 0)
(2.40026 -0.00713437 0)
(2.38009 -0.00632506 0)
(2.36104 -0.00549035 0)
(2.34285 -0.00465878 0)
(2.32532 -0.00385099 0)
(2.30828 -0.0030814 0)
(2.29161 -0.00235966 0)
(2.27523 -0.00169172 0)
(2.25907 -0.00108077 0)
(2.24308 -0.000527739 0)
(2.22722 -3.18366e-05 0)
(2.21149 0.000409097 0)
(2.19586 0.000798213 0)
(2.18034 0.00113933 0)
(2.16491 0.00143664 0)
(2.14958 0.00169453 0)
(2.13435 0.00191735 0)
(2.11922 0.00210932 0)
(2.10421 0.00227445 0)
(2.08929 0.00241647 0)
(2.07449 0.00253885 0)
(2.05979 0.00264472 0)
(2.0452 0.00273691 0)
(2.03071 0.00281796 0)
(2.01632 0.00289012 0)
(2.00202 0.0029554 0)
(1.9878 0.00301553 0)
(1.97366 0.00307206 0)
(1.95958 0.00312632 0)
(1.94555 0.00317945 0)
(1.93157 0.00323241 0)
(1.91761 0.00328598 0)
(1.90366 0.00334086 0)
(1.88971 0.00339772 0)
(1.87575 0.00345724 0)
(1.86175 0.00352001 0)
(1.8477 0.00358657 0)
(1.83358 0.0036574 0)
(1.81937 0.00373292 0)
(1.80505 0.00381349 0)
(1.79061 0.00389945 0)
(1.77601 0.00399109 0)
(1.76125 0.00408869 0)
(1.74628 0.0041925 0)
(1.73111 0.00430273 0)
(1.71569 0.0044196 0)
(1.7 0.00454326 0)
(1.68402 0.00467388 0)
(1.66773 0.00481158 0)
(1.65109 0.00495644 0)
(1.63407 0.00510852 0)
(1.61665 0.00526783 0)
(1.5988 0.00543434 0)
(1.58049 0.00560796 0)
(1.56169 0.00578852 0)
(1.54235 0.00597579 0)
(1.52247 0.00616944 0)
(1.50198 0.00636903 0)
(1.48088 0.00657402 0)
(1.45911 0.00678369 0)
(1.43666 0.00699717 0)
(1.41347 0.00721338 0)
(1.38952 0.00743098 0)
(1.36478 0.00764841 0)
(1.33921 0.00786387 0)
(1.31278 0.00807592 0)
(1.28545 0.00828309 0)
(1.25721 0.00848351 0)
(1.22801 0.00867495 0)
(1.19785 0.00885493 0)
(1.1667 0.0090208 0)
(1.13453 0.00916945 0)
(1.10135 0.00929725 0)
(1.06714 0.00940007 0)
(1.03191 0.00947334 0)
(0.995669 0.00951229 0)
(0.958432 0.00951195 0)
(0.920229 0.00946732 0)
(0.881102 0.00937346 0)
(0.841102 0.00922578 0)
(0.800294 0.00902024 0)
(0.758761 0.00875366 0)
(0.716595 0.00842416 0)
(0.673909 0.00803155 0)
(0.630828 0.00757782 0)
(0.587494 0.00706769 0)
(0.544063 0.00650905 0)
(0.500704 0.00591335 0)
(0.457597 0.00529579 0)
(0.41493 0.00467505 0)
(0.372895 0.00407246 0)
(0.33169 0.00351021 0)
(0.291509 0.00300859 0)
(0.252545 0.00258227 0)
(0.214985 0.00223638 0)
(0.179013 0.00196274 0)
(0.144815 0.00173735 0)
(0.112572 0.00152082 0)
(0.0824681 0.00126345 0)
(0.0546739 0.000916096 0)
(0.0293244 0.000448547 0)
(0.00654062 -0.000124044 0)
(-0.0136473 -0.000798079 0)
(-0.031353 -0.00149155 0)
(-0.0467064 -0.00211224 0)
(-0.0598632 -0.0025888 0)
(-0.0709566 -0.00290057 0)
(-0.0800429 -0.0031151 0)
(-0.0870874 -0.00333201 0)
(-0.0920926 -0.0035491 0)
(-0.0951868 -0.00369375 0)
(-0.0966812 -0.00368201 0)
(-0.0969256 -0.00356266 0)
(-0.0961257 -0.00345459 0)
(-0.0943372 -0.00340638 0)
(-0.0916267 -0.0033684 0)
(-0.0882079 -0.00326155 0)
(-0.084301 -0.00310972 0)
(-0.0799258 -0.00302043 0)
(-0.0748872 -0.00308095 0)
(10.0008 0.122279 0)
(10.0676 0.272137 0)
(10.1383 0.342321 0)
(10.1915 0.367553 0)
(10.2161 0.377243 0)
(10.2123 0.385769 0)
(10.1866 0.395783 0)
(10.1458 0.40522 0)
(10.094 0.411969 0)
(10.033 0.415277 0)
(9.96332 0.41546 0)
(9.88493 0.413208 0)
(9.79809 0.40907 0)
(9.70347 0.403325 0)
(9.60187 0.396017 0)
(9.49434 0.387101 0)
(9.38179 0.376511 0)
(9.26523 0.364236 0)
(9.14544 0.350294 0)
(9.02323 0.334784 0)
(8.89947 0.317888 0)
(8.77496 0.299859 0)
(8.65048 0.280991 0)
(8.52675 0.261606 0)
(8.40441 0.242029 0)
(8.28405 0.222584 0)
(8.16616 0.203569 0)
(8.05118 0.185255 0)
(7.93943 0.167862 0)
(7.83121 0.151567 0)
(7.72667 0.13649 0)
(7.62596 0.122705 0)
(7.52909 0.110233 0)
(7.4361 0.0990646 0)
(7.34686 0.0891481 0)
(7.26133 0.0804182 0)
(7.17928 0.0727845 0)
(7.10058 0.066168 0)
(7.02506 0.060489 0)
(6.95257 0.0556585 0)
(6.88292 0.0515793 0)
(6.81594 0.0481511 0)
(6.75145 0.0452769 0)
(6.68927 0.0428675 0)
(6.62925 0.040844 0)
(6.57124 0.0391384 0)
(6.51508 0.0376934 0)
(6.46065 0.0364606 0)
(6.40783 0.0354001 0)
(6.35651 0.0344786 0)
(6.30658 0.033669 0)
(6.25797 0.0329494 0)
(6.21057 0.0323023 0)
(6.16433 0.0317138 0)
(6.11915 0.0311734 0)
(6.07499 0.0306728 0)
(6.03178 0.0302059 0)
(5.98947 0.0297685 0)
(5.94799 0.0293574 0)
(5.90731 0.0289706 0)
(5.86738 0.0286068 0)
(5.82814 0.0282656 0)
(5.78956 0.0279467 0)
(5.7516 0.0276504 0)
(5.71422 0.0273773 0)
(5.67737 0.027128 0)
(5.64101 0.0269033 0)
(5.60512 0.0267043 0)
(5.56964 0.0265319 0)
(5.53455 0.0263871 0)
(5.49981 0.026271 0)
(5.46537 0.0261845 0)
(5.4312 0.0261285 0)
(5.39727 0.0261041 0)
(5.36352 0.0261122 0)
(5.32994 0.0261538 0)
(5.29646 0.02623 0)
(5.26306 0.0263418 0)
(5.2297 0.0264905 0)
(5.19633 0.0266771 0)
(5.1629 0.0269028 0)
(5.12938 0.027169 0)
(5.09572 0.0274768 0)
(5.06188 0.0278277 0)
(5.02779 0.028223 0)
(4.99343 0.0286642 0)
(4.95872 0.0291529 0)
(4.92363 0.0296907 0)
(4.88809 0.0302791 0)
(4.85205 0.0309199 0)
(4.81546 0.0316148 0)
(4.77824 0.0323656 0)
(4.74034 0.0331742 0)
(4.70168 0.0340422 0)
(4.66221 0.0349717 0)
(4.62185 0.0359644 0)
(4.58052 0.0370221 0)
(4.53815 0.0381466 0)
(4.49465 0.0393395 0)
(4.44995 0.0406023 0)
(4.40396 0.0419365 0)
(4.35658 0.043343 0)
(4.30772 0.044823 0)
(4.25729 0.0463767 0)
(4.20519 0.0480043 0)
(4.15131 0.0497049 0)
(4.09555 0.0514766 0)
(4.0378 0.0533165 0)
(3.97795 0.0552213 0)
(3.91588 0.0571862 0)
(3.85149 0.059206 0)
(3.78464 0.0612742 0)
(3.71523 0.0633825 0)
(3.64314 0.0655214 0)
(3.56826 0.0676794 0)
(3.49046 0.069843 0)
(3.40965 0.0719964 0)
(3.32572 0.0741217 0)
(3.23859 0.0761979 0)
(3.14816 0.0782015 0)
(3.05437 0.0801062 0)
(2.95718 0.0818827 0)
(2.85656 0.0834988 0)
(2.7525 0.08492 0)
(2.64504 0.0861092 0)
(2.53424 0.0870277 0)
(2.42022 0.0876354 0)
(2.30315 0.0878922 0)
(2.18325 0.0877587 0)
(2.06081 0.0871979 0)
(1.93621 0.0861765 0)
(1.80987 0.0846672 0)
(1.68235 0.0826513 0)
(1.55426 0.0801215 0)
(1.4263 0.0770834 0)
(1.29925 0.073556 0)
(1.17393 0.0695736 0)
(1.0512 0.0651904 0)
(0.931923 0.0604856 0)
(0.816905 0.055566 0)
(0.706887 0.0505627 0)
(0.602501 0.0456594 0)
(0.504299 0.0409649 0)
(0.412677 0.0365707 0)
(0.327957 0.0324744 0)
(0.25038 0.028549 0)
(0.180019 0.0246047 0)
(0.116908 0.020543 0)
(0.0611948 0.01641 0)
(0.012707 0.012343 0)
(-0.0289723 0.00863603 0)
(-0.0645488 0.00551193 0)
(-0.0946074 0.00300425 0)
(-0.119418 0.000776816 0)
(-0.139241 -0.00132092 0)
(-0.154513 -0.00313809 0)
(-0.165899 -0.00446636 0)
(-0.173942 -0.00553834 0)
(-0.178882 -0.00676344 0)
(-0.18072 -0.00835175 0)
(10.0003 0.0614122 0)
(10.0359 0.160323 0)
(10.0898 0.227823 0)
(10.1516 0.268451 0)
(10.2101 0.293285 0)
(10.2592 0.312151 0)
(10.298 0.330012 0)
(10.3292 0.347479 0)
(10.3556 0.363366 0)
(10.3789 0.376571 0)
(10.3993 0.3867 0)
(10.4165 0.393929 0)
(10.4298 0.398644 0)
(10.4388 0.401151 0)
(10.4434 0.401594 0)
(10.4434 0.399983 0)
(10.4391 0.396276 0)
(10.4303 0.390452 0)
(10.4173 0.382571 0)
(10.4001 0.372765 0)
(10.3788 0.361216 0)
(10.3536 0.348159 0)
(10.3247 0.333864 0)
(10.2925 0.318628 0)
(10.2571 0.302761 0)
(10.2189 0.28658 0)
(10.1783 0.270384 0)
(10.1356 0.254452 0)
(10.0911 0.239022 0)
(10.0453 0.224293 0)
(9.99841 0.210409 0)
(9.95077 0.197472 0)
(9.90263 0.185534 0)
(9.85425 0.174612 0)
(9.80578 0.164685 0)
(9.75743 0.155714 0)
(9.70927 0.147639 0)
(9.66144 0.140407 0)
(9.61401 0.133963 0)
(9.56703 0.128241 0)
(9.52051 0.123168 0)
(9.47446 0.118664 0)
(9.42888 0.114652 0)
(9.38376 0.11106 0)
(9.33909 0.107824 0)
(9.29488 0.104888 0)
(9.2511 0.102207 0)
(9.20773 0.0997419 0)
(9.16478 0.0974597 0)
(9.12221 0.095334 0)
(9.08001 0.0933427 0)
(9.03817 0.0914678 0)
(8.99668 0.089695 0)
(8.95552 0.0880127 0)
(8.91469 0.0864121 0)
(8.87416 0.0848863 0)
(8.83393 0.0834301 0)
(8.79398 0.0820399 0)
(8.75432 0.080713 0)
(8.71492 0.0794477 0)
(8.67577 0.078243 0)
(8.63687 0.0770985 0)
(8.59821 0.0760142 0)
(8.55976 0.0749905 0)
(8.52152 0.074028 0)
(8.48348 0.0731276 0)
(8.44561 0.0722904 0)
(8.40791 0.0715175 0)
(8.37036 0.0708103 0)
(8.33293 0.0701702 0)
(8.29562 0.0695986 0)
(8.2584 0.0690974 0)
(8.22125 0.0686683 0)
(8.18414 0.0683131 0)
(8.14706 0.0680337 0)
(8.10998 0.0678321 0)
(8.07287 0.0677103 0)
(8.0357 0.0676704 0)
(7.99844 0.0677146 0)
(7.96107 0.0678453 0)
(7.92354 0.0680649 0)
(7.88582 0.0683761 0)
(7.84787 0.0687819 0)
(7.80966 0.0692852 0)
(7.77114 0.0698892 0)
(7.73226 0.0705973 0)
(7.69299 0.0714133 0)
(7.65326 0.0723409 0)
(7.61304 0.0733842 0)
(7.57226 0.0745477 0)
(7.53087 0.0758357 0)
(7.4888 0.0772532 0)
(7.44599 0.0788051 0)
(7.40237 0.0804967 0)
(7.35787 0.0823335 0)
(7.31242 0.0843211 0)
(7.26593 0.0864656 0)
(7.21833 0.0887729 0)
(7.16951 0.0912494 0)
(7.11939 0.0939014 0)
(7.06787 0.0967354 0)
(7.01485 0.099758 0)
(6.96021 0.102976 0)
(6.90384 0.106395 0)
(6.84562 0.110021 0)
(6.78541 0.113861 0)
(6.72309 0.117918 0)
(6.65851 0.122197 0)
(6.59152 0.126701 0)
(6.52196 0.131431 0)
(6.44968 0.136389 0)
(6.3745 0.141574 0)
(6.29624 0.146981 0)
(6.21471 0.152607 0)
(6.12973 0.158444 0)
(6.04108 0.164481 0)
(5.94856 0.170705 0)
(5.85195 0.177097 0)
(5.75104 0.183636 0)
(5.64559 0.190295 0)
(5.53539 0.197038 0)
(5.4202 0.203828 0)
(5.2998 0.210615 0)
(5.17396 0.217345 0)
(5.04246 0.223952 0)
(4.90511 0.230363 0)
(4.76171 0.23649 0)
(4.6121 0.242237 0)
(4.45615 0.247495 0)
(4.29378 0.252141 0)
(4.12493 0.256038 0)
(3.94963 0.25904 0)
(3.768 0.260987 0)
(3.58022 0.261712 0)
(3.38661 0.261051 0)
(3.18761 0.258846 0)
(2.98381 0.254955 0)
(2.77599 0.249263 0)
(2.56513 0.241701 0)
(2.35246 0.232262 0)
(2.13944 0.221008 0)
(1.9278 0.208098 0)
(1.71951 0.193769 0)
(1.51674 0.178339 0)
(1.3217 0.162179 0)
(1.13656 0.145697 0)
(0.963176 0.129313 0)
(0.802925 0.113509 0)
(0.656485 0.0988504 0)
(0.523688 0.0856842 0)
(0.404178 0.0739923 0)
(0.297644 0.0632602 0)
(0.203683 0.0529133 0)
(0.122216 0.0428089 0)
(0.0525528 0.033059 0)
(-0.00639286 0.0242565 0)
(-0.056066 0.016819 0)
(-0.0973237 0.0104252 0)
(-0.130723 0.00435526 0)
(-0.15689 -0.00180144 0)
(10.0002 0.0417812 0)
(10.0198 0.117276 0)
(10.0537 0.178916 0)
(10.0983 0.224503 0)
(10.1468 0.25657 0)
(10.1935 0.280049 0)
(10.2355 0.29931 0)
(10.2732 0.316685 0)
(10.3082 0.33256 0)
(10.3422 0.346428 0)
(10.376 0.357802 0)
(10.4096 0.366544 0)
(10.4428 0.372811 0)
(10.4748 0.376857 0)
(10.5055 0.378878 0)
(10.5345 0.378974 0)
(10.5616 0.377182 0)
(10.5867 0.37353 0)
(10.6096 0.368084 0)
(10.6301 0.36095 0)
(10.6482 0.352276 0)
(10.6636 0.342244 0)
(10.6764 0.331065 0)
(10.6863 0.318975 0)
(10.6935 0.306222 0)
(10.698 0.293061 0)
(10.6999 0.279738 0)
(10.6993 0.266484 0)
(10.6964 0.253505 0)
(10.6914 0.240973 0)
(10.6846 0.229031 0)
(10.6761 0.21778 0)
(10.6661 0.207292 0)
(10.6549 0.197603 0)
(10.6427 0.188729 0)
(10.6295 0.180658 0)
(10.6156 0.173367 0)
(10.6011 0.166808 0)
(10.586 0.160921 0)
(10.5705 0.155645 0)
(10.5546 0.150919 0)
(10.5383 0.146682 0)
(10.5217 0.14288 0)
(10.5048 0.139459 0)
(10.4876 0.136372 0)
(10.4701 0.133574 0)
(10.4524 0.131026 0)
(10.4345 0.128695 0)
(10.4163 0.126552 0)
(10.3978 0.12457 0)
(10.3791 0.122728 0)
(10.3602 0.121007 0)
(10.3411 0.119392 0)
(10.3217 0.11787 0)
(10.302 0.116432 0)
(10.2821 0.115069 0)
(10.262 0.113776 0)
(10.2416 0.112546 0)
(10.221 0.111378 0)
(10.2001 0.110269 0)
(10.179 0.109217 0)
(10.1576 0.108223 0)
(10.1361 0.107286 0)
(10.1142 0.106408 0)
(10.0921 0.105589 0)
(10.0698 0.10483 0)
(10.0472 0.104135 0)
(10.0244 0.103505 0)
(10.0014 0.102942 0)
(9.97802 0.102449 0)
(9.95443 0.102029 0)
(9.93057 0.101685 0)
(9.90643 0.101421 0)
(9.882 0.101239 0)
(9.85728 0.101145 0)
(9.83225 0.10114 0)
(9.8069 0.10123 0)
(9.78121 0.101418 0)
(9.75518 0.101709 0)
(9.72877 0.102106 0)
(9.70198 0.102615 0)
(9.67477 0.103241 0)
(9.64713 0.103989 0)
(9.61903 0.104863 0)
(9.59045 0.10587 0)
(9.56135 0.107016 0)
(9.5317 0.108308 0)
(9.50146 0.109751 0)
(9.47061 0.111353 0)
(9.43909 0.113121 0)
(9.40687 0.115063 0)
(9.3739 0.117188 0)
(9.34013 0.119503 0)
(9.3055 0.122019 0)
(9.26996 0.124743 0)
(9.23345 0.127687 0)
(9.19591 0.13086 0)
(9.15725 0.134273 0)
(9.11741 0.137937 0)
(9.07632 0.141863 0)
(9.03387 0.146065 0)
(8.98999 0.150552 0)
(8.94457 0.155339 0)
(8.89752 0.160438 0)
(8.84872 0.16586 0)
(8.79805 0.17162 0)
(8.74539 0.17773 0)
(8.69061 0.184202 0)
(8.63356 0.191049 0)
(8.57409 0.198283 0)
(8.51204 0.205914 0)
(8.44723 0.213952 0)
(8.3795 0.222405 0)
(8.30863 0.231279 0)
(8.23442 0.240579 0)
(8.15666 0.250307 0)
(8.07511 0.26046 0)
(7.98952 0.271036 0)
(7.89964 0.282023 0)
(7.80518 0.293408 0)
(7.70586 0.305171 0)
(7.60137 0.317283 0)
(7.4914 0.32971 0)
(7.37559 0.342407 0)
(7.25361 0.35532 0)
(7.12509 0.368381 0)
(6.98966 0.381511 0)
(6.84693 0.394614 0)
(6.69651 0.407579 0)
(6.53801 0.420278 0)
(6.37105 0.43256 0)
(6.19523 0.444256 0)
(6.0102 0.455173 0)
(5.81564 0.465092 0)
(5.61125 0.473766 0)
(5.3968 0.480924 0)
(5.17212 0.486274 0)
(4.93716 0.489505 0)
(4.69199 0.490295 0)
(4.43684 0.488308 0)
(4.17215 0.48321 0)
(3.89862 0.474675 0)
(3.61724 0.462411 0)
(3.32938 0.446195 0)
(3.03686 0.425916 0)
(2.74198 0.401624 0)
(2.44766 0.373602 0)
(2.15739 0.342391 0)
(1.87518 0.308835 0)
(1.60538 0.274102 0)
(1.35233 0.239527 0)
(1.11993 0.206437 0)
(0.910834 0.175854 0)
(0.726102 0.148822 0)
(0.564256 0.125722 0)
(0.4231 0.105976 0)
(0.300369 0.0880828 0)
(0.195309 0.07105 0)
(0.106669 0.0543632 0)
(0.0325531 0.0383073 0)
(10.0001 0.0316627 0)
(10.0128 0.0917413 0)
(10.036 0.145038 0)
(10.0682 0.188698 0)
(10.1059 0.222282 0)
(10.1451 0.247719 0)
(10.1829 0.267814 0)
(10.2183 0.284869 0)
(10.2518 0.299982 0)
(10.2843 0.313284 0)
(10.3168 0.324519 0)
(10.3498 0.333476 0)
(10.383 0.340136 0)
(10.4162 0.344638 0)
(10.449 0.34716 0)
(10.4811 0.347851 0)
(10.5124 0.346813 0)
(10.5427 0.344126 0)
(10.5719 0.339867 0)
(10.5998 0.334136 0)
(10.6264 0.32706 0)
(10.6514 0.318796 0)
(10.6746 0.30952 0)
(10.6961 0.299429 0)
(10.7157 0.288729 0)
(10.7334 0.277633 0)
(10.7492 0.266345 0)
(10.7632 0.25506 0)
(10.7754 0.243953 0)
(10.7859 0.233176 0)
(10.7948 0.222853 0)
(10.8024 0.213081 0)
(10.8087 0.20393 0)
(10.8139 0.195443 0)
(10.8182 0.18764 0)
(10.8216 0.180523 0)
(10.8243 0.174073 0)
(10.8263 0.168255 0)
(10.8278 0.163023 0)
(10.8289 0.158329 0)
(10.8295 0.154125 0)
(10.8297 0.150364 0)
(10.8296 0.147005 0)
(10.8291 0.144005 0)
(10.8283 0.141323 0)
(10.8273 0.138922 0)
(10.8259 0.136767 0)
(10.8243 0.134826 0)
(10.8224 0.13307 0)
(10.8203 0.131476 0)
(10.8178 0.130022 0)
(10.8151 0.12869 0)
(10.8121 0.127464 0)
(10.8088 0.126332 0)
(10.8052 0.125283 0)
(10.8013 0.124309 0)
(10.7971 0.123404 0)
(10.7926 0.122562 0)
(10.7877 0.121782 0)
(10.7826 0.121059 0)
(10.7771 0.120393 0)
(10.7713 0.119784 0)
(10.7652 0.119231 0)
(10.7587 0.118736 0)
(10.7519 0.118301 0)
(10.7448 0.117927 0)
(10.7373 0.117616 0)
(10.7295 0.117372 0)
(10.7214 0.117197 0)
(10.7129 0.117094 0)
(10.704 0.117068 0)
(10.6948 0.117122 0)
(10.6852 0.11726 0)
(10.6753 0.117487 0)
(10.6649 0.117807 0)
(10.6542 0.118224 0)
(10.6431 0.118745 0)
(10.6316 0.119374 0)
(10.6197 0.120117 0)
(10.6073 0.12098 0)
(10.5945 0.121968 0)
(10.5812 0.123089 0)
(10.5675 0.124349 0)
(10.5533 0.125756 0)
(10.5385 0.127317 0)
(10.5233 0.129041 0)
(10.5074 0.130934 0)
(10.491 0.133008 0)
(10.474 0.135271 0)
(10.4564 0.137733 0)
(10.4381 0.140404 0)
(10.4191 0.143296 0)
(10.3994 0.14642 0)
(10.3789 0.149789 0)
(10.3576 0.153414 0)
(10.3354 0.157311 0)
(10.3124 0.161492 0)
(10.2884 0.165973 0)
(10.2633 0.170769 0)
(10.2372 0.175896 0)
(10.21 0.181371 0)
(10.1815 0.187211 0)
(10.1518 0.193434 0)
(10.1207 0.200059 0)
(10.0882 0.207104 0)
(10.0541 0.21459 0)
(10.0184 0.222537 0)
(9.98091 0.230965 0)
(9.94159 0.239894 0)
(9.90028 0.249347 0)
(9.85685 0.259341 0)
(9.81117 0.2699 0)
(9.76307 0.281041 0)
(9.71239 0.292784 0)
(9.65895 0.305146 0)
(9.60256 0.318143 0)
(9.54301 0.33179 0)
(9.48009 0.346096 0)
(9.41355 0.36107 0)
(9.34313 0.376716 0)
(9.26856 0.393031 0)
(9.18955 0.41001 0)
(9.10576 0.427638 0)
(9.01687 0.445892 0)
(8.9225 0.464742 0)
(8.82226 0.484144 0)
(8.71573 0.504044 0)
(8.60246 0.52437 0)
(8.48198 0.545038 0)
(8.35378 0.565941 0)
(8.21732 0.586953 0)
(8.07205 0.607926 0)
(7.91737 0.628684 0)
(7.75267 0.649021 0)
(7.57732 0.668696 0)
(7.39067 0.687435 0)
(7.19205 0.704925 0)
(6.98084 0.720822 0)
(6.75641 0.734742 0)
(6.51818 0.746267 0)
(6.26563 0.754946 0)
(5.99837 0.760296 0)
(5.71614 0.761802 0)
(5.41889 0.758917 0)
(5.1068 0.751085 0)
(4.78039 0.737759 0)
(4.44058 0.718424 0)
(4.08881 0.692628 0)
(3.72714 0.660039 0)
(3.35837 0.620561 0)
(2.98622 0.574423 0)
(2.61561 0.522337 0)
(2.25265 0.465643 0)
(1.90469 0.406377 0)
(1.57941 0.347325 0)
(1.28402 0.291582 0)
(1.02361 0.241608 0)
(0.800239 0.199142 0)
(0.611031 0.16421 0)
(0.450652 0.134686 0)
(10.0001 0.0253327 0)
(10.0092 0.0742932 0)
(10.0261 0.11944 0)
(10.0502 0.158589 0)
(10.0797 0.190696 0)
(10.1121 0.216193 0)
(10.1451 0.236532 0)
(10.1773 0.253355 0)
(10.2083 0.267847 0)
(10.2386 0.280503 0)
(10.2688 0.291333 0)
(10.2993 0.300188 0)
(10.3301 0.306984 0)
(10.3611 0.311758 0)
(10.3921 0.31464 0)
(10.4226 0.315783 0)
(10.4527 0.315322 0)
(10.482 0.313365 0)
(10.5106 0.310006 0)
(10.5383 0.305342 0)
(10.5649 0.299487 0)
(10.5905 0.292573 0)
(10.6148 0.284752 0)
(10.6378 0.276192 0)
(10.6594 0.267069 0)
(10.6795 0.257561 0)
(10.6982 0.247846 0)
(10.7155 0.238088 0)
(10.7314 0.22844 0)
(10.746 0.219035 0)
(10.7594 0.209985 0)
(10.7716 0.201377 0)
(10.7829 0.193279 0)
(10.7933 0.185734 0)
(10.8029 0.178766 0)
(10.8119 0.17238 0)
(10.8203 0.166565 0)
(10.8281 0.161299 0)
(10.8356 0.156549 0)
(10.8427 0.152279 0)
(10.8494 0.148453 0)
(10.8559 0.145034 0)
(10.8622 0.141987 0)
(10.8682 0.139277 0)
(10.874 0.13687 0)
(10.8797 0.134732 0)
(10.8851 0.132831 0)
(10.8904 0.131141 0)
(10.8955 0.129633 0)
(10.9005 0.128287 0)
(10.9053 0.127081 0)
(10.9099 0.126 0)
(10.9143 0.125027 0)
(10.9186 0.124153 0)
(10.9226 0.123366 0)
(10.9265 0.122658 0)
(10.9301 0.122024 0)
(10.9336 0.121458 0)
(10.9368 0.120958 0)
(10.9398 0.120521 0)
(10.9425 0.120145 0)
(10.9451 0.11983 0)
(10.9474 0.119577 0)
(10.9494 0.119387 0)
(10.9512 0.119261 0)
(10.9528 0.119201 0)
(10.9541 0.11921 0)
(10.9551 0.119291 0)
(10.9559 0.119446 0)
(10.9564 0.11968 0)
(10.9566 0.119997 0)
(10.9565 0.1204 0)
(10.9561 0.120894 0)
(10.9555 0.121485 0)
(10.9545 0.122176 0)
(10.9532 0.122973 0)
(10.9517 0.123882 0)
(10.9497 0.124909 0)
(10.9475 0.126061 0)
(10.9449 0.127343 0)
(10.942 0.128764 0)
(10.9387 0.13033 0)
(10.935 0.13205 0)
(10.9309 0.133931 0)
(10.9264 0.135984 0)
(10.9215 0.138217 0)
(10.9162 0.14064 0)
(10.9104 0.143264 0)
(10.9042 0.146099 0)
(10.8974 0.149158 0)
(10.8902 0.152453 0)
(10.8824 0.155997 0)
(10.8741 0.159803 0)
(10.8651 0.163887 0)
(10.8556 0.168264 0)
(10.8454 0.172949 0)
(10.8346 0.177961 0)
(10.823 0.183316 0)
(10.8107 0.189033 0)
(10.7975 0.195133 0)
(10.7836 0.201635 0)
(10.7687 0.208562 0)
(10.753 0.215936 0)
(10.7362 0.22378 0)
(10.7184 0.232118 0)
(10.6994 0.240977 0)
(10.6793 0.250383 0)
(10.6579 0.260362 0)
(10.6352 0.270942 0)
(10.611 0.282153 0)
(10.5853 0.294022 0)
(10.558 0.30658 0)
(10.5289 0.319856 0)
(10.4979 0.333881 0)
(10.465 0.348682 0)
(10.4299 0.36429 0)
(10.3925 0.380732 0)
(10.3526 0.398033 0)
(10.3101 0.416217 0)
(10.2648 0.435307 0)
(10.2163 0.455319 0)
(10.1645 0.476268 0)
(10.1092 0.498161 0)
(10.05 0.521001 0)
(9.98657 0.544781 0)
(9.91866 0.569487 0)
(9.84586 0.595093 0)
(9.76776 0.621559 0)
(9.68392 0.648832 0)
(9.59385 0.676841 0)
(9.49705 0.705496 0)
(9.39292 0.734683 0)
(9.28086 0.764264 0)
(9.16019 0.794072 0)
(9.03019 0.823913 0)
(8.89008 0.853558 0)
(8.73905 0.882741 0)
(8.5762 0.911159 0)
(8.40061 0.938464 0)
(8.21133 0.964268 0)
(8.00736 0.988131 0)
(7.78767 1.00957 0)
(7.55128 1.02803 0)
(7.29718 1.0429 0)
(7.02444 1.05351 0)
(6.73227 1.05911 0)
(6.41998 1.05892 0)
(6.08716 1.05214 0)
(5.73373 1.03795 0)
(5.36 1.01554 0)
(4.9669 0.984181 0)
(4.55611 0.943248 0)
(4.13028 0.892282 0)
(3.69319 0.831099 0)
(3.24998 0.760033 0)
(2.80752 0.680223 0)
(2.3748 0.593961 0)
(1.96314 0.50487 0)
(1.58484 0.418006 0)
(1.25065 0.338859 0)
(10.0001 0.020837 0)
(10.007 0.0615061 0)
(10.02 0.0997291 0)
(10.0387 0.134104 0)
(10.0623 0.163617 0)
(10.0892 0.188087 0)
(10.1177 0.2081 0)
(10.1466 0.224642 0)
(10.1751 0.238662 0)
(10.2033 0.250751 0)
(10.2314 0.261111 0)
(10.2596 0.269716 0)
(10.2882 0.276493 0)
(10.317 0.281433 0)
(10.3459 0.284615 0)
(10.3745 0.286164 0)
(10.4028 0.286216 0)
(10.4305 0.284891 0)
(10.4576 0.282295 0)
(10.4839 0.278525 0)
(10.5093 0.273685 0)
(10.5339 0.267892 0)
(10.5574 0.261276 0)
(10.5798 0.25398 0)
(10.6011 0.246156 0)
(10.6211 0.237957 0)
(10.64 0.229535 0)
(10.6576 0.221034 0)
(10.6741 0.212584 0)
(10.6895 0.204304 0)
(10.7038 0.196293 0)
(10.7172 0.188632 0)
(10.7298 0.181383 0)
(10.7415 0.174591 0)
(10.7526 0.16828 0)
(10.7631 0.162461 0)
(10.7731 0.157132 0)
(10.7827 0.152279 0)
(10.7918 0.147881 0)
(10.8007 0.143913 0)
(10.8093 0.140348 0)
(10.8177 0.137155 0)
(10.8259 0.134305 0)
(10.8339 0.13177 0)
(10.8417 0.129519 0)
(10.8495 0.127523 0)
(10.8571 0.125757 0)
(10.8646 0.124193 0)
(10.872 0.12281 0)
(10.8793 0.121587 0)
(10.8865 0.120505 0)
(10.8936 0.119549 0)
(10.9005 0.118707 0)
(10.9074 0.117966 0)
(10.9142 0.117318 0)
(10.9208 0.116754 0)
(10.9273 0.11627 0)
(10.9337 0.115861 0)
(10.9399 0.115522 0)
(10.946 0.115253 0)
(10.952 0.115051 0)
(10.9578 0.114916 0)
(10.9635 0.114849 0)
(10.969 0.11485 0)
(10.9743 0.114921 0)
(10.9795 0.115064 0)
(10.9845 0.115282 0)
(10.9893 0.115577 0)
(10.994 0.115953 0)
(10.9985 0.116413 0)
(11.0028 0.116962 0)
(11.0068 0.117604 0)
(11.0107 0.118343 0)
(11.0144 0.119184 0)
(11.0179 0.120134 0)
(11.0212 0.121196 0)
(11.0242 0.122379 0)
(11.027 0.123687 0)
(11.0296 0.125128 0)
(11.032 0.126709 0)
(11.0341 0.128438 0)
(11.0359 0.130323 0)
(11.0375 0.132372 0)
(11.0388 0.134595 0)
(11.0399 0.137001 0)
(11.0406 0.1396 0)
(11.041 0.142404 0)
(11.0412 0.145424 0)
(11.041 0.148672 0)
(11.0404 0.15216 0)
(11.0395 0.155903 0)
(11.0382 0.159915 0)
(11.0366 0.16421 0)
(11.0345 0.168806 0)
(11.032 0.173719 0)
(11.0291 0.178967 0)
(11.0257 0.184568 0)
(11.0219 0.190544 0)
(11.0175 0.196914 0)
(11.0125 0.203702 0)
(11.007 0.210929 0)
(11.001 0.218621 0)
(10.9942 0.226804 0)
(10.9869 0.235503 0)
(10.9788 0.244747 0)
(10.97 0.254566 0)
(10.9603 0.26499 0)
(10.9499 0.27605 0)
(10.9386 0.287781 0)
(10.9263 0.300215 0)
(10.913 0.313389 0)
(10.8986 0.327339 0)
(10.8832 0.342101 0)
(10.8664 0.357715 0)
(10.8484 0.374218 0)
(10.829 0.391648 0)
(10.8081 0.410045 0)
(10.7855 0.429447 0)
(10.7612 0.449891 0)
(10.735 0.471413 0)
(10.7068 0.494049 0)
(10.6764 0.517829 0)
(10.6437 0.542783 0)
(10.6083 0.568934 0)
(10.5701 0.596302 0)
(10.5289 0.624898 0)
(10.4843 0.654727 0)
(10.436 0.685783 0)
(10.3838 0.718047 0)
(10.3272 0.75149 0)
(10.2657 0.786063 0)
(10.199 0.821701 0)
(10.1265 0.858316 0)
(10.0476 0.895799 0)
(9.96159 0.934012 0)
(9.86788 0.972791 0)
(9.76562 1.01193 0)
(9.65397 1.0512 0)
(9.53197 1.09032 0)
(9.39861 1.12894 0)
(9.25278 1.16671 0)
(9.09327 1.20317 0)
(8.91882 1.23782 0)
(8.72807 1.27011 0)
(8.51961 1.29939 0)
(8.29199 1.32494 0)
(8.04374 1.34599 0)
(7.77339 1.36167 0)
(7.47957 1.37105 0)
(7.16099 1.37311 0)
(6.81659 1.36675 0)
(6.44564 1.35083 0)
(6.04789 1.32418 0)
(5.62372 1.28564 0)
(5.17431 1.23419 0)
(4.70203 1.16906 0)
(4.21074 1.08987 0)
(3.70619 0.996743 0)
(3.19628 0.890703 0)
(2.69175 0.774232 0)
(10.0001 0.0174419 0)
(10.0056 0.0516768 0)
(10.016 0.0842461 0)
(10.0311 0.114219 0)
(10.0503 0.14079 0)
(10.0729 0.163585 0)
(10.0976 0.18274 0)
(10.1233 0.19876 0)
(10.1494 0.212283 0)
(10.1755 0.223831 0)
(10.2017 0.233689 0)
(10.2281 0.241934 0)
(10.2547 0.24855 0)
(10.2816 0.253524 0)
(10.3085 0.256898 0)
(10.3354 0.258765 0)
(10.3621 0.259242 0)
(10.3883 0.258448 0)
(10.4139 0.256489 0)
(10.4389 0.253464 0)
(10.4632 0.249472 0)
(10.4867 0.244617 0)
(10.5093 0.239014 0)
(10.531 0.232786 0)
(10.5516 0.226063 0)
(10.5712 0.218978 0)
(10.5897 0.211662 0)
(10.6072 0.20424 0)
(10.6236 0.196826 0)
(10.6391 0.189523 0)
(10.6537 0.18242 0)
(10.6674 0.175591 0)
(10.6803 0.169093 0)
(10.6925 0.162969 0)
(10.704 0.157245 0)
(10.715 0.151938 0)
(10.7255 0.147049 0)
(10.7356 0.142574 0)
(10.7454 0.138499 0)
(10.7548 0.134807 0)
(10.764 0.131477 0)
(10.7729 0.128486 0)
(10.7817 0.125809 0)
(10.7902 0.123422 0)
(10.7987 0.1213 0)
(10.807 0.119417 0)
(10.8152 0.117752 0)
(10.8233 0.116281 0)
(10.8313 0.114985 0)
(10.8392 0.113846 0)
(10.847 0.112847 0)
(10.8548 0.111975 0)
(10.8624 0.111217 0)
(10.87 0.110564 0)
(10.8775 0.110006 0)
(10.8849 0.109537 0)
(10.8922 0.109151 0)
(10.8994 0.108844 0)
(10.9066 0.108612 0)
(10.9136 0.108453 0)
(10.9205 0.108366 0)
(10.9273 0.10835 0)
(10.934 0.108407 0)
(10.9406 0.108535 0)
(10.9471 0.108738 0)
(10.9535 0.109017 0)
(10.9597 0.109375 0)
(10.9658 0.109815 0)
(10.9718 0.110339 0)
(10.9777 0.110952 0)
(10.9834 0.111658 0)
(10.989 0.112461 0)
(10.9944 0.113365 0)
(10.9997 0.114378 0)
(11.0049 0.115502 0)
(11.0099 0.116746 0)
(11.0147 0.118114 0)
(11.0194 0.119614 0)
(11.0239 0.121253 0)
(11.0283 0.123038 0)
(11.0324 0.124978 0)
(11.0364 0.12708 0)
(11.0402 0.129355 0)
(11.0438 0.131812 0)
(11.0472 0.13446 0)
(11.0504 0.13731 0)
(11.0534 0.140375 0)
(11.0561 0.143666 0)
(11.0586 0.147196 0)
(11.0609 0.150978 0)
(11.063 0.155026 0)
(11.0647 0.159357 0)
(11.0663 0.163986 0)
(11.0675 0.168929 0)
(11.0684 0.174206 0)
(11.069 0.179834 0)
(11.0694 0.185835 0)
(11.0693 0.192228 0)
(11.069 0.199037 0)
(11.0682 0.206285 0)
(11.0671 0.213996 0)
(11.0656 0.222197 0)
(11.0637 0.230916 0)
(11.0613 0.24018 0)
(11.0585 0.250021 0)
(11.0552 0.26047 0)
(11.0514 0.27156 0)
(11.047 0.283325 0)
(11.0421 0.295803 0)
(11.0366 0.309031 0)
(11.0304 0.323047 0)
(11.0236 0.337893 0)
(11.016 0.35361 0)
(11.0077 0.370242 0)
(10.9986 0.387833 0)
(10.9886 0.406429 0)
(10.9777 0.426074 0)
(10.9658 0.446817 0)
(10.9529 0.468704 0)
(10.9388 0.491782 0)
(10.9235 0.516097 0)
(10.9068 0.541695 0)
(10.8887 0.56862 0)
(10.869 0.596913 0)
(10.8475 0.626612 0)
(10.8242 0.657752 0)
(10.7989 0.690363 0)
(10.7713 0.724465 0)
(10.7411 0.760073 0)
(10.7082 0.797193 0)
(10.6723 0.835817 0)
(10.6329 0.875924 0)
(10.5898 0.91748 0)
(10.5424 0.960429 0)
(10.4904 1.0047 0)
(10.433 1.05019 0)
(10.3698 1.09677 0)
(10.3 1.14429 0)
(10.2227 1.19254 0)
(10.1373 1.24129 0)
(10.0425 1.29025 0)
(9.93741 1.33908 0)
(9.82073 1.38737 0)
(9.69115 1.43466 0)
(9.5472 1.4804 0)
(9.38731 1.52398 0)
(9.20977 1.56467 0)
(9.01277 1.60168 0)
(8.7944 1.63408 0)
(8.55268 1.66088 0)
(8.2856 1.68095 0)
(7.99117 1.69305 0)
(7.66753 1.69586 0)
(7.31297 1.68793 0)
(6.9261 1.66775 0)
(6.50609 1.63375 0)
(6.05284 1.5844 0)
(5.56727 1.51823 0)
(5.0516 1.43404 0)
(4.51003 1.33121 0)
(10 0.0147645 0)
(10.0046 0.0438384 0)
(10.0132 0.0717486 0)
(10.0257 0.0978085 0)
(10.0419 0.121427 0)
(10.0611 0.142214 0)
(10.0826 0.160096 0)
(10.1056 0.175287 0)
(10.1293 0.188165 0)
(10.1535 0.19912 0)
(10.1779 0.20843 0)
(10.2025 0.216234 0)
(10.2274 0.222569 0)
(10.2526 0.227443 0)
(10.278 0.230884 0)
(10.3033 0.232959 0)
(10.3285 0.233759 0)
(10.3533 0.23339 0)
(10.3778 0.231956 0)
(10.4016 0.229552 0)
(10.4249 0.226273 0)
(10.4474 0.222214 0)
(10.4692 0.217478 0)
(10.4901 0.21217 0)
(10.5102 0.206404 0)
(10.5293 0.200295 0)
(10.5475 0.193954 0)
(10.5648 0.18749 0)
(10.5812 0.181003 0)
(10.5966 0.174583 0)
(10.6112 0.168309 0)
(10.6251 0.162247 0)
(10.6382 0.156449 0)
(10.6506 0.150958 0)
(10.6625 0.145799 0)
(10.6738 0.140992 0)
(10.6846 0.136542 0)
(10.695 0.13245 0)
(10.705 0.128709 0)
(10.7147 0.125306 0)
(10.7241 0.122227 0)
(10.7333 0.119453 0)
(10.7423 0.116964 0)
(10.7511 0.11474 0)
(10.7598 0.112759 0)
(10.7683 0.111002 0)
(10.7767 0.109447 0)
(10.785 0.108077 0)
(10.7931 0.106874 0)
(10.8012 0.105823 0)
(10.8092 0.104908 0)
(10.8171 0.104118 0)
(10.825 0.103441 0)
(10.8327 0.102869 0)
(10.8404 0.102394 0)
(10.8479 0.102008 0)
(10.8554 0.101707 0)
(10.8628 0.101487 0)
(10.8702 0.101345 0)
(10.8774 0.101278 0)
(10.8846 0.101286 0)
(10.8916 0.101367 0)
(10.8986 0.101523 0)
(10.9055 0.101754 0)
(10.9122 0.102061 0)
(10.9189 0.102447 0)
(10.9255 0.102915 0)
(10.932 0.103466 0)
(10.9383 0.104106 0)
(10.9446 0.104836 0)
(10.9507 0.105662 0)
(10.9568 0.106589 0)
(10.9627 0.10762 0)
(10.9685 0.108762 0)
(10.9742 0.110019 0)
(10.9797 0.111399 0)
(10.9852 0.112907 0)
(10.9905 0.114551 0)
(10.9956 0.116338 0)
(11.0006 0.118276 0)
(11.0055 0.120373 0)
(11.0103 0.122637 0)
(11.0149 0.125079 0)
(11.0193 0.127708 0)
(11.0236 0.130535 0)
(11.0277 0.13357 0)
(11.0317 0.136825 0)
(11.0355 0.140314 0)
(11.0391 0.144048 0)
(11.0425 0.148043 0)