/*--------------------------------*- C++ -*----------------------------------*\
| =========                 |                                                 |
| \\      /  F ield         | OpenFOAM: The Open Source CFD Toolbox           |
|  \\    /   O peration     | Version:  2306                                  |
|   \\  /    A nd           | Website:  www.openfoam.com                      |
|    \\/     M anipulation  |                                                 |
\*---------------------------------------------------------------------------*/
FoamFile
{
    version     2.0;
    format      ascii;
    arch        "LSB;label=32;scalar=64";
    class       volScalarField;
    location    "0.05";
    object      p;
}
// * * * * * * * * * * * * * * * * * * * * * * * * * * * * * * * * * * * * * //

dimensions      [0 2 -2 0 0 0 0];

internalField   nonuniform List<scalar> 
4400
(
371.897
370.881
369.974
369.3
368.849
368.542
368.296
368.065
367.833
367.591
367.343
367.096
366.847
366.599
366.352
366.1
365.848
365.595
365.338
365.088
364.849
364.599
364.326
364.056
363.803
363.553
363.294
363.033
362.779
362.534
362.294
362.057
361.828
361.611
361.417
361.252
361.122
361.027
360.961
360.921
360.891
360.869
360.849
360.827
360.801
360.771
360.736
360.701
360.667
360.638
360.616
360.605
360.606
360.623
360.657
360.711
360.787
360.888
361.018
361.18
361.376
361.613
361.894
362.223
362.607
363.048
363.554
364.129
364.775
365.5
366.298
367.178
368.13
369.149
370.23
371.348
372.5
373.65
374.781
375.877
370.435
370.092
369.661
369.217
368.822
368.499
368.229
367.988
367.77
367.545
367.308
367.077
366.838
366.584
366.339
366.097
365.837
365.579
365.337
365.089
364.834
364.592
364.349
364.078
363.799
363.546
363.313
363.067
362.806
362.552
362.317
362.09
361.861
361.639
361.438
361.271
361.142
361.046
360.98
360.934
360.907
360.883
360.859
360.832
360.802
360.766
360.728
360.687
360.651
360.619
360.595
360.582
360.58
360.594
360.624
360.674
360.746
360.841
360.965
361.119
361.307
361.534
361.804
362.122
362.491
362.918
363.409
363.965
364.593
365.296
366.075
366.934
367.862
368.865
369.928
371.033
372.183
373.328
374.48
375.601
369.89
369.724
369.467
369.148
368.809
368.496
368.213
367.956
367.732
367.514
367.283
367.06
366.833
366.58
366.333
366.097
365.837
365.572
365.334
365.096
364.835
364.593
364.373
364.115
363.816
363.545
363.334
363.127
362.872
362.599
362.358
362.153
361.952
361.745
361.553
361.396
361.27
361.167
361.08
361.008
360.949
360.9
360.858
360.815
360.772
360.729
360.687
360.647
360.608
360.574
360.547
360.529
360.523
360.529
360.551
360.591
360.65
360.733
360.84
360.977
361.144
361.349
361.593
361.881
362.218
362.608
363.058
363.569
364.149
364.799
365.522
366.32
367.189
368.132
369.134
370.197
371.302
372.435
373.596
374.751
369.476
369.375
369.202
368.968
368.697
368.426
368.163
367.909
367.683
367.467
367.239
367.022
366.808
366.564
366.317
366.088
365.835
365.562
365.322
365.096
364.839
364.59
364.382
364.144
363.837
363.548
363.349
363.175
362.93
362.64
362.394
362.211
362.036
361.835
361.634
361.468
361.336
361.221
361.118
361.031
360.962
360.905
360.851
360.799
360.748
360.699
360.65
360.604
360.559
360.519
360.486
360.461
360.446
360.443
360.453
360.48
360.524
360.589
360.676
360.789
360.932
361.105
361.317
361.566
361.861
362.205
362.601
363.057
363.571
364.157
364.804
365.528
366.323
367.182
368.123
369.108
370.168
371.272
372.411
373.616
369.176
369.107
368.983
368.808
368.591
368.36
368.121
367.878
367.653
367.439
367.211
366.994
366.788
366.552
366.307
366.084
365.839
365.561
365.316
365.099
364.848
364.592
364.387
364.168
363.865
363.561
363.361
363.209
362.981
362.686
362.434
362.259
362.097
361.899
361.694
361.527
361.399
361.286
361.178
361.08
360.997
360.924
360.855
360.789
360.726
360.667
360.61
360.555
360.504
360.457
360.416
360.383
360.357
360.343
360.34
360.35
360.377
360.419
360.484
360.57
360.681
360.822
360.99
361.2
361.442
361.733
362.069
362.456
362.905
363.403
363.981
364.611
365.319
366.103
366.941
367.875
368.857
369.916
371.057
372.239
368.959
368.906
368.81
368.671
368.491
368.293
368.077
367.847
367.627
367.414
367.187
366.969
366.767
366.538
366.296
366.077
365.839
365.561
365.311
365.098
364.853
364.595
364.39
364.183
363.888
363.575
363.37
363.232
363.021
362.725
362.462
362.287
362.137
361.95
361.747
361.577
361.446
361.327
361.208
361.096
361
360.918
360.84
360.766
360.695
360.628
360.564
360.502
360.443
360.388
360.339
360.294
360.258
360.229
360.211
360.204
360.209
360.231
360.266
360.324
360.399
360.501
360.63
360.783
360.979
361.201
361.475
361.789
362.151
362.579
363.047
363.6
364.207
364.886
365.657
366.478
367.411
368.414
369.496
370.709
368.8
368.757
368.678
368.56
368.405
368.23
368.034
367.817
367.604
367.394
367.167
366.95
366.749
366.524
366.285
366.07
365.837
365.561
365.309
365.097
364.857
364.597
364.39
364.191
363.907
363.591
363.378
363.244
363.046
362.754
362.485
362.311
362.172
361.991
361.785
361.608
361.471
361.35
361.226
361.109
361.006
360.916
360.83
360.746
360.667
360.59
360.518
360.447
360.381
360.316
360.256
360.201
360.149
360.108
360.07
360.045
360.029
360.022
360.033
360.051
360.095
360.15
360.231
360.338
360.462
360.633
360.818
361.061
361.337
361.657
362.052
362.472
362.994
363.566
364.214
364.975
365.792
366.738
367.79
368.936
368.689
368.651
368.581
368.477
368.338
368.179
367.997
367.791
367.585
367.378
367.153
366.935
366.734
366.512
366.277
366.063
365.833
365.562
365.309
365.095
364.856
364.599
364.392
364.198
363.92
363.602
363.382
363.25
363.063
362.778
362.506
362.328
362.191
362.014
361.806
361.626
361.488
361.365
361.238
361.114
361.003
360.904
360.811
360.719
360.632
360.548
360.467
360.39
360.311
360.239
360.167
360.099
360.037
359.974
359.924
359.873
359.835
359.803
359.777
359.77
359.761
359.784
359.804
359.854
359.926
360.002
360.136
360.266
360.457
360.685
360.94
361.284
361.654
362.121
362.663
363.28
364.033
364.866
365.842
366.976
368.618
368.583
368.519
368.422
368.293
368.144
367.971
367.773
367.571
367.367
367.144
366.926
366.725
366.504
366.271
366.058
365.831
365.562
365.309
365.093
364.856
364.601
364.393
364.199
363.924
363.609
363.386
363.255
363.073
362.791
362.516
362.334
362.197
362.025
361.819
361.636
361.495
361.369
361.237
361.107
360.99
360.886
360.786
360.69
360.594
360.504
360.416
360.327
360.244
360.156
360.077
359.994
359.916
359.843
359.763
359.702
359.627
359.573
359.517
359.461
359.431
359.38
359.369
359.346
359.346
359.366
359.383
359.453
359.513
359.637
359.782
359.97
360.238
360.544
360.947
361.453
362.044
362.787
363.67
364.69
368.583
368.55
368.488
368.395
368.27
368.125
367.957
367.763
367.564
367.362
367.139
366.921
366.72
366.499
366.267
366.055
365.83
365.562
365.307
365.091
364.856
364.602
364.392
364.198
363.926
363.613
363.388
363.253
363.073
362.793
362.518
362.335
362.199
362.027
361.82
361.633
361.489
361.361
361.227
361.094
360.972
360.863
360.759
360.655
360.556
360.456
360.362
360.266
360.17
360.078
359.979
359.89
359.792
359.7
359.61
359.511
359.429
359.328
359.249
359.155
359.07
358.996
358.893
358.841
358.744
358.687
358.637
358.565
358.553
358.529
358.539
358.597
358.691
358.847
359.086
359.413
359.869
360.44
361.201
362.123
368.583
368.55
368.488
368.395
368.27
368.125
367.957
367.762
367.564
367.361
367.138
366.921
366.72
366.499
366.266
366.054
365.829
365.561
365.306
365.089
364.855
364.6
364.39
364.195
363.923
363.609
363.384
363.248
363.068
362.788
362.512
362.328
362.19
362.018
361.809
361.62
361.474
361.343
361.209
361.072
360.949
360.835
360.726
360.62
360.51
360.412
360.303
360.205
360.099
359.991
359.893
359.773
359.678
359.555
359.448
359.338
359.203
359.108
358.96
358.85
358.718
358.574
358.453
358.294
358.154
357.999
357.846
357.687
357.533
357.386
357.245
357.129
357.064
357.005
357.066
357.191
357.42
357.839
358.376
359.183
368.617
368.583
368.518
368.422
368.292
368.143
367.97
367.772
367.57
367.366
367.142
366.925
366.723
366.502
366.268
366.055
365.828
365.559
365.305
365.089
364.851
364.595
364.387
364.192
363.916
363.599
363.375
363.242
363.059
362.775
362.497
362.312
362.173
361.997
361.787
361.599
361.452
361.319
361.181
361.043
360.917
360.802
360.69
360.58
360.469
360.359
360.252
360.139
360.03
359.912
359.795
359.677
359.546
359.425
359.284
359.155
359.004
358.859
358.704
358.527
358.377
358.162
357.992
357.777
357.536
357.328
357.055
356.776
356.524
356.198
355.898
355.619
355.313
355.067
354.856
354.762
354.724
354.876
355.225
355.751
368.688
368.651
368.581
368.476
368.337
368.178
367.996
367.79
367.583
367.376
367.151
366.933
366.732
366.509
366.273
366.059
365.829
365.557
365.303
365.088
364.848
364.589
364.381
364.186
363.906
363.586
363.364
363.229
363.039
362.75
362.475
362.293
362.149
361.968
361.752
361.566
361.417
361.287
361.148
361.005
360.885
360.759
360.656
360.534
360.425
360.314
360.189
360.089
359.945
359.844
359.699
359.569
359.445
359.266
359.156
358.957
358.808
358.638
358.417
358.254
358.013
357.775
357.551
357.245
356.963
356.644
356.27
355.905
355.467
355.03
354.516
354.052
353.499
352.985
352.532
352.062
351.76
351.565
351.589
351.841
368.799
368.756
368.677
368.559
368.404
368.229
368.032
367.815
367.602
367.391
367.164
366.946
366.745
366.519
366.28
366.064
365.831
365.554
365.3
365.087
364.845
364.585
364.375
364.175
363.888
363.569
363.353
363.215
363.013
362.716
362.442
362.262
362.115
361.928
361.71
361.525
361.372
361.241
361.1
360.965
360.842
360.721
360.617
360.493
360.385
360.265
360.144
360.025
359.886
359.763
359.615
359.475
359.326
359.149
359.002
358.791
358.617
358.415
358.164
357.974
357.675
357.406
357.121
356.748
356.392
356.006
355.49
355.041
354.476
353.817
353.187
352.435
351.653
350.815
350.022
349.199
348.439
347.85
347.449
347.282
368.957
368.905
368.809
368.669
368.49
368.291
368.075
367.845
367.624
367.411
367.183
366.965
366.763
366.533
366.29
366.07
365.831
365.552
365.3
365.086
364.839
364.579
364.371
364.162
363.864
363.547
363.339
363.195
362.981
362.677
362.409
362.224
362.067
361.87
361.652
361.476
361.319
361.195
361.038
360.915
360.792
360.672
360.58
360.435
360.359
360.2
360.108
359.965
359.817
359.718
359.503
359.425
359.188
359.043
358.876
358.605
358.477
358.179
357.939
357.724
357.333
357.09
356.696
356.274
355.9
355.33
354.83
354.184
353.495
352.712
351.848
350.865
349.777
348.631
347.382
346.104
344.823
343.68
342.664
341.94
369.175
369.105
368.981
368.806
368.589
368.358
368.119
367.875
367.65
367.435
367.207
366.989
366.783
366.546
366.3
366.076
365.829
365.55
365.304
365.085
364.831
364.573
364.366
364.143
363.836
363.528
363.324
363.165
362.933
362.628
362.373
362.182
362.016
361.8
361.584
361.405
361.249
361.137
360.98
360.882
360.734
360.645
360.529
360.401
360.325
360.15
360.086
359.89
359.786
359.635
359.441
359.35
359.069
358.963
358.715
358.479
358.312
357.962
357.763
357.435
357.084
356.748
356.319
355.87
355.388
354.78
354.156
353.444
352.586
351.67
350.577
349.392
347.961
346.399
344.728
342.849
340.855
338.998
337.159
335.578
369.474
369.373
369.2
368.966
368.695
368.424
368.16
367.906
367.679
367.463
367.235
367.016
366.802
366.557
366.308
366.079
365.825
365.55
365.307
365.08
364.82
364.569
364.356
364.116
363.803
363.511
363.306
363.126
362.875
362.573
362.325
362.121
361.948
361.717
361.514
361.322
361.161
361.046
360.874
360.82
360.649
360.612
360.46
360.372
360.285
360.109
360.083
359.811
359.793
359.53
359.407
359.292
358.961
358.939
358.538
358.387
358.148
357.765
357.61
357.161
356.867
356.456
355.941
355.598
354.833
354.342
353.585
352.684
351.875
350.705
349.427
348.056
346.295
344.283
342.107
339.472
336.611
333.78
330.726
327.892
369.888
369.722
369.465
369.145
368.807
368.494
368.21
367.953
367.729
367.51
367.278
367.054
366.826
366.573
366.325
366.087
365.826
365.558
365.319
365.077
364.814
364.569
364.345
364.085
363.778
363.505
363.285
363.075
362.808
362.527
362.28
362.051
361.86
361.604
361.441
361.21
361.119
360.944
360.836
360.752
360.587
360.603
360.374
360.41
360.182
360.135
360.019
359.775
359.795
359.41
359.436
359.105
358.946
358.789
358.448
358.322
357.965
357.734
357.363
357.038
356.677
356.118
355.782
355.206
354.504
353.957
353.064
352.146
351.224
349.839
348.546
346.887
344.789
342.517
339.745
336.172
332.301
327.929
323.048
318.654
370.433
370.09
369.659
369.215
368.819
368.496
368.225
367.985
367.766
367.541
367.303
367.071
366.831
366.576
366.33
366.086
365.824
365.565
365.32
365.07
364.811
364.567
364.319
364.046
363.758
363.504
363.258
363.013
362.735
362.477
362.231
361.981
361.763
361.478
361.325
361.06
360.985
360.796
360.741
360.665
360.529
360.572
360.335
360.423
360.147
360.148
359.955
359.777
359.747
359.39
359.404
359.053
358.928
358.691
358.448
358.148
357.912
357.593
357.154
357.04
356.367
355.93
355.64
354.695
354.315
353.668
352.471
352.011
350.433
349.311
347.771
346.018
343.517
341.197
337.695
333.47
328.201
321.677
312.883
305.395
371.895
370.879
369.971
369.298
368.846
368.54
368.293
368.061
367.829
367.586
367.338
367.09
366.84
366.591
366.342
366.088
365.834
365.58
365.32
365.068
364.826
364.572
364.295
364.022
363.761
363.509
363.238
362.976
362.704
362.46
362.197
361.958
361.708
361.476
361.273
361.065
360.939
360.773
360.721
360.602
360.561
360.471
360.403
360.323
360.198
360.118
359.941
359.853
359.651
359.515
359.277
359.139
358.839
358.672
358.461
358.035
358.02
357.367
357.261
356.773
356.305
355.964
355.438
354.758
354.248
353.257
352.639
351.475
350.368
349.132
347.541
345.52
343.349
340.453
336.923
332.012
326.452
316.941
305.214
286.45
376.91
377.91
378.881
379.885
380.985
382.21
383.586
385.08
386.662
388.285
389.91
391.529
393.119
394.799
396.214
397.177
397.769
398.419
399.269
399.668
376.672
377.745
378.777
379.884
381.075
382.363
383.813
385.289
386.864
388.424
389.997
391.65
392.99
394.777
396.149
396.962
397.212
398.022
399.75
400.374
375.922
377.099
378.292
379.563
380.881
382.317
383.846
385.386
387.044
388.648
390.318
392.063
393.659
395.6
396.944
397.498
397.937
398.411
398.566
399.001
374.833
376.118
377.458
378.856
380.361
381.939
383.618
385.345
387.171
388.953
390.761
392.473
393.85
395.225
396.455
397.329
397.563
399.188
402.167
403.793
373.52
374.878
376.294
377.852
379.482
381.198
383.065
384.952
386.941
388.956
391.045
393.301
395.916
398.41
400.211
399.56
396.371
395.727
397.512
399.667
371.98
373.381
374.908
376.522
378.269
380.168
382.125
384.179
386.37
388.531
390.75
392.67
394.067
395.234
396.178
396.669
398.149
400.667
402.092
403.833
370.241
371.663
373.201
374.94
376.769
378.731
380.867
383.083
385.331
387.603
389.923
392.313
394.885
397.164
398.392
398.417
397.826
397.875
399.954
401.709
368.214
369.653
371.258
372.975
374.932
377.023
379.186
381.526
383.98
386.414
388.562
390.348
391.827
393.216
394.91
396.801
397.923
399.334
402.285
406.319
365.933
367.311
368.91
370.734
372.678
374.835
377.218
379.623
382.066
384.691
387.592
390.536
392.656
393.275
393.547
395.15
397.203
398.574
400.129
402.113
363.239
364.625
366.177
367.982
370.063
372.266
374.653
377.304
380.002
382.416
384.347
386.133
387.968
389.948
392.738
396.069
397.977
397.882
398.082
398.851
360.17
361.422
362.994
364.782
366.836
369.209
371.741
374.339
377.174
380.467
383.844
386.014
386.388
387.842
390.856
393.369
394.563
394.746
394.985
395.483
356.608
357.738
359.178
360.992
363.092
365.501
368.24
371.039
373.638
375.834
378.137
380.826
383.669
386.744
389.606
391.477
392.108
391.998
391.81
392.064
352.427
353.377
354.718
356.482
358.65
361.149
363.892
367.031
370.586
373.658
375.195
376.438
378.769
381.891
384.783
386.991
388.274
388.688
388.803
389.259
347.513
348.221
349.407
351.082
353.387
356.153
358.889
361.467
364.114
367.13
370.361
373.792
376.678
378.964
380.718
382.292
383.794
385.033
385.989
386.888
341.702
342.002
342.993
344.699
346.999
350.031
353.822
357.626
360.308
361.855
364.298
367.961
371.426
374.23
376.164
377.636
379.245
381.015
382.609
383.864
334.651
334.494
335.212
337.079
339.644
342.297
345.186
348.94
353.065
356.791
360.251
363.309
366.113
368.802
371.027
372.744
374.412
376.195
377.956
379.34
325.772
324.755
325.404
327.789
331.699
336.079
339.452
341.7
344.614
348.924
353.524
357.245
360.209
362.881
365.318
367.372
369.057
370.572
372.179
373.468
314.807
312.478
313.038
315.69
319.032
323.381
328.894
334.124
338.572
342.293
346.132
350.047
353.441
356.351
359.029
361.414
363.149
364.422
365.733
366.745
298.091
296.801
300.49
306.017
310.035
312.089
315.743
322.057
328.454
333.552
337.823
341.961
345.755
348.993
351.906
354.59
356.54
357.801
358.865
359.579
265.342
269.128
279.364
288.362
295.501
301.791
307.104
311.892
317.567
323.391
328.578
333.303
337.559
341.028
344.029
346.865
349.118
350.59
351.594
352.116
232.739
254.338
262.291
267.012
272.13
280.584
290.831
298.93
305.399
311.704
317.864
323.549
328.515
332.43
335.653
338.58
341.079
342.788
343.839
344.291
253.731
255.538
260.156
257.556
256.267
259.27
269.847
281.674
290.921
298.8
306.097
312.698
318.446
323.17
326.948
330.083
332.76
334.606
335.67
336.093
237.209
244.977
252.875
250.817
245.649
241.855
248.045
261.571
274.034
284.382
293.321
301.056
307.674
313.33
317.827
321.372
324.281
326.244
327.3
327.711
240.18
238.063
241.656
243.172
233.632
227.214
227.312
239.493
254.974
268.357
279.562
288.814
296.375
302.822
308.057
312.181
315.47
317.675
318.84
319.315
238.518
231.948
227.906
223.894
214.572
209.136
207.571
216.802
234.179
250.689
264.732
275.952
284.659
291.857
297.85
302.588
306.298
308.86
310.285
310.925
226.413
216.752
208.889
197.475
190.699
186.862
187.028
194.814
213.219
232.722
249.501
262.878
273.005
281.126
287.894
293.167
297.198
300.077
301.783
302.619
204.415
195.791
183.146
168.559
163.605
161.201
163.893
172.99
192.513
215.003
234.434
249.953
261.671
270.932
278.532
284.342
288.665
291.794
293.705
294.691
177.909
168.524
151.378
138.936
133.069
132.303
138.742
151.305
172.586
198.203
220.143
237.558
250.788
261.193
269.616
276.059
280.82
284.263
286.383
287.494
150.739
140.89
122.567
109.706
101.627
103.118
114.95
130.986
154.321
183.15
207.364
226.345
240.864
252.217
261.3
268.367
273.63
277.492
279.92
281.194
128.279
118.16
99.9756
86.5416
77.5897
80.9414
96.661
114.122
138.946
170.609
196.713
216.917
232.55
244.657
254.197
261.706
267.377
271.607
274.353
275.821
113.228
102.505
84.9141
71.2308
60.6857
67.2531
84.9249
102.43
128.115
161.414
188.646
209.731
226.255
238.977
248.822
256.574
262.453
266.829
269.853
271.434
107.496
96.6368
79.514
65.9728
56.5786
62.9484
80.0915
97.1334
123.136
156.704
183.912
205.204
222.216
235.318
245.263
253.165
259.093
263.384
266.674
268.234
110.902
101.007
84.8548
71.1886
62.5865
67.53
82.2525
99.0994
124.581
156.761
182.892
203.713
220.652
233.566
243.396
251.264
257.195
261.49
264.824
266.347
122.545
113.419
98.9842
86.045
78.3929
81.3761
92.6047
108.683
132.505
161.403
185.687
205.545
221.573
233.747
243.188
250.727
256.562
260.855
264.183
265.762
141.345
133.161
119.373
107.583
100.851
102.165
110.522
124.527
146.298
171.346
192.76
210.588
224.926
235.983
244.628
251.581
257.044
261.188
264.473
266.215
164.992
157.454
144.876
134.133
127.363
126.926
132.888
144.756
164.504
185.662
203.512
218.412
230.557
240.053
247.616
253.83
258.68
262.427
265.619
267.476
191.575
184.605
172.967
163.11
155.999
154.027
157.896
167.916
185.035
202.173
216.269
227.997
237.721
245.399
251.856
257.121
261.308
264.602
267.48
269.305
219.233
212.76
202.059
192.233
185.1
182.189
184.516
192.769
206.328
219.148
229.513
238.225
245.465
251.495
256.762
260.992
264.578
267.507
269.91
271.532
246.631
240.381
230.026
220.463
213.547
210.056
211.118
217.309
226.903
235.502
242.337
248.356
253.344
257.941
261.835
265.15
268.127
270.788
272.743
274.025
271.942
266.467
256.779
247.669
240.583
236.456
236.153
239.829
245.506
250.467
254.344
258.046
261.33
264.343
266.976
269.5
271.768
274.115
275.89
276.832
293.787
289.089
280.743
272.185
265.019
260.367
258.556
259.584
261.752
263.643
265.331
267.207
269.111
270.584
272.197
273.854
275.426
277.276
279.005
279.729
311.393
307.579
300.7
292.921
285.907
280.624
277.237
275.688
275.209
274.775
274.897
275.497
276.133
276.501
277.212
277.974
278.906
280.102
281.645
282.362
323.841
320.846
315.218
308.757
302.082
296.162
291.439
287.785
285.465
283.704
282.724
282.44
281.96
281.744
281.608
281.647
282.014
282.558
283.595
284.32
331.348
329.095
324.719
319.346
313.2
306.955
301.432
296.646
293.135
290.737
289.003
287.994
286.766
286.081
285.313
284.826
284.605
284.577
285.011
285.636
335.153
333.396
329.889
325.4
319.924
313.822
308.061
303.052
299.049
296.306
294.129
292.503
290.883
289.747
288.548
287.643
286.878
286.354
286.191
286.481
336.224
334.823
331.922
328.114
323.38
317.788
312.246
307.471
303.507
300.597
298.25
296.187
294.447
292.903
291.487
290.226
289.007
287.969
287.282
287.29
335.529
334.395
331.956
328.683
324.69
319.804
314.766
310.377
306.712
303.752
301.415
299.149
297.377
295.634
294.078
292.58
291.079
289.642
288.475
288.215
333.854
332.929
330.877
328.055
324.717
320.607
316.217
312.279
308.987
306.088
303.781
301.48
299.705
297.906
296.311
294.662
293.012
291.301
289.807
289.475
331.75
330.994
329.275
326.87
324.048
320.676
316.961
313.501
310.614
307.858
305.605
303.339
301.545
299.816
298.176
296.503
294.806
293.07
291.447
291.009
329.551
328.933
327.492
325.475
323.074
320.312
317.204
314.205
311.678
309.201
306.998
304.864
303.07
301.405
299.802
298.139
296.47
294.772
293.183
292.776
327.438
326.933
325.709
324.03
322.01
319.72
317.116
314.51
312.278
310.099
308.024
306.073
304.339
302.761
301.195
299.629
298.052
296.542
295.141
294.706
325.494
325.078
324.021
322.61
320.938
319.017
316.847
314.577
312.565
310.681
308.733
307.012
305.369
303.888
302.444
300.986
299.553
298.195
296.98
296.562
323.746
323.388
322.461
321.268
319.883
318.266
316.463
314.502
312.711
311.035
309.285
307.72
306.188
304.811
303.479
302.162
300.878
299.737
298.776
298.472
322.17
321.864
321.046
320.033
318.871
317.492
316.004
314.317
312.75
311.281
309.704
308.316
306.873
305.618
304.413
303.256
302.171
301.245
300.508
300.146
320.757
320.466
319.774
318.918
317.909
316.753
315.482
314.054
312.689
311.377
310.026
308.758
307.474
306.313
305.235
304.195
303.215
302.383
301.788
301.691
319.469
319.195
318.618
317.901
317.018
316.059
314.953
313.745
312.552
311.385
310.207
309.112
307.941
306.927
305.942
305.065
304.265
303.687
303.303
303.07
318.294
318.03
317.567
316.977
316.183
315.446
314.401
313.451
312.366
311.318
310.315
309.327
308.329
307.417
306.585
305.82
305.151
304.595
304.198
304.115
317.224
316.99
316.623
316.138
315.445
314.856
313.922
313.129
312.174
311.243
310.368
309.496
308.612
307.812
307.023
306.37
305.775
305.349
305.127
305.097
316.271
316.074
315.801
315.393
314.821
314.296
313.5
312.83
311.96
311.155
310.385
309.579
308.822
308.106
307.466
306.919
306.488
306.22
306.022
305.836
315.45
315.304
315.096
314.77
314.285
313.802
313.147
312.502
311.778
311.039
310.377
309.633
308.998
308.356
307.753
307.253
306.812
306.405
306.227
306.347
314.779
314.679
314.524
314.238
313.837
313.395
312.807
312.261
311.58
310.954
310.301
309.672
309.048
308.48
307.954
307.513
307.162
307.032
306.932
306.781
314.254
314.203
314.051
313.824
313.445
313.057
312.54
312.009
311.426
310.808
310.258
309.619
309.131
308.59
308.142
307.783
307.509
307.177
307.089
307.132
313.876
313.843
313.703
313.477
313.154
312.779
312.298
311.835
311.258
310.722
310.173
309.636
309.108
308.62
308.179
307.754
307.381
307.228
307.089
307.022
313.618
313.596
313.433
313.249
312.905
312.568
312.123
311.649
311.144
310.588
310.082
309.517
309.052
308.565
308.145
307.837
307.635
307.426
307.366
307.375
313.472
313.438
313.274
313.067
312.764
312.403
311.968
311.524
311.008
310.491
309.989
309.477
309.001
308.554
308.182
307.808
307.462
307.293
307.176
307.121
313.418
313.361
313.191
312.989
312.645
312.308
311.869
311.405
310.911
310.389
309.868
309.341
308.854
308.373
307.921
307.535
307.26
307.023
306.849
306.856
313.449
313.381
313.192
312.958
312.631
312.242
311.802
311.326
310.814
310.261
309.752
309.204
308.706
308.231
307.824
307.514
307.209
307.003
306.869
306.934
313.57
313.464
313.278
313.013
312.637
312.251
311.768
311.268
310.728
310.184
309.613
309.065
308.547
308.048
307.613
307.127
306.785
306.505
306.348
306.193
313.765
313.657
313.429
313.127
312.744
312.28
311.787
311.24
310.67
310.054
309.471
308.867
308.283
307.721
307.163
306.79
306.424
306.165
305.795
305.966
314.057
313.903
313.677
313.315
312.866
312.392
311.821
311.23
310.607
309.964
309.313
308.655
308.041
307.468
307.009
306.49
306.077
305.705
305.53
305.238
314.414
314.269
313.975
313.568
313.091
312.513
311.914
311.262
310.566
309.85
309.136
308.436
307.768
307.108
306.437
305.866
305.386
305.101
304.853
304.826
314.883
314.695
314.38
313.893
313.326
312.724
312.03
311.29
310.543
309.756
308.966
308.176
307.37
306.631
305.978
305.437
304.9
304.39
303.979
303.617
315.412
315.23
314.828
314.285
313.674
312.946
312.187
311.389
310.515
309.627
308.743
307.828
307.022
306.23
305.491
304.724
304.114
303.673
303.404
303.363
316.061
315.836
315.392
314.758
314.025
313.252
312.391
311.454
310.517
309.545
308.543
307.6
306.603
305.641
304.743
304.01
303.262
302.682
302.466
301.563
316.767
316.535
315.994
315.281
314.497
313.578
312.615
311.617
310.531
309.421
308.305
307.134
306.009
305.005
304.036
303.107
302.404
301.734
300.96
301.243
317.587
317.315
316.71
315.906
314.964
313.985
312.909
311.737
310.548
309.3
308.036
306.769
305.598
304.317
303.22
302.232
301.162
300.415
300.338
299.273
318.47
318.177
317.473
316.556
315.557
314.409
313.207
311.954
310.59
309.226
307.783
306.379
304.839
303.552
302.181
300.925
299.989
299.063
297.946
298.246
319.44
319.114
318.327
317.322
316.145
314.931
313.598
312.148
310.679
309.074
307.481
305.799
304.243
302.489
301.04
299.674
298.379
297.442
296.792
296.149
320.475
320.122
319.234
318.099
316.855
315.45
313.981
312.442
310.729
309.018
307.198
305.335
303.392
301.642
299.79
298.195
296.671
295.357
294.131
294.361
321.552
321.17
320.201
318.971
317.558
316.096
314.483
312.722
310.917
308.934
306.845
304.781
302.616
300.323
298.266
296.156
294.539
293.142
291.919
290.852
322.664
322.267
321.196
319.865
318.381
316.719
314.987
313.118
311.054
308.877
306.655
304.119
301.591
299.078
296.425
294.282
291.959
290.199
288.351
288.687
323.755
323.331
322.229
320.796
319.179
317.5
315.596
313.554
311.34
308.953
306.221
303.552
300.645
297.61
294.776
291.605
289.26
286.89
285.362
283.322
324.802
324.404
323.218
321.772
320.122
318.24
316.309
314.08
311.652
308.963
306.184
302.933
299.596
296.063
292.189
288.87
285.218
282.71
278.829
279.677
325.756
325.343
324.241
322.73
321.005
319.201
317.041
314.745
312.154
309.248
305.894
302.377
298.423
294.263
290.081
285.349
281.227
277.47
275.013
271.686
326.571
326.242
325.143
323.753
322.09
320.095
318.051
315.553
312.701
309.56
305.996
301.886
297.502
292.483
287.006
281.663
276.12
271.226
264.766
265.462
327.251
326.948
326.102
324.756
323.121
321.309
319.017
316.491
313.597
310.089
306.102
301.624
296.319
290.667
284.269
277.166
269.68
262.745
256.983
251.041
327.804
327.65
326.957
325.888
324.392
322.476
320.396
317.76
314.523
310.96
306.588
301.451
295.822
288.821
281.017
272.324
262.771
252.283
240.046
237.621
328.372
328.316
327.955
327.028
325.73
324.019
321.743
319.131
315.961
311.952
307.347
301.73
294.869
287.282
277.885
266.865
254.145
239.808
223.147
208.256
329.071
329.204
329.025
328.44
327.255
325.637
323.632
320.9
317.516
313.549
308.424
302.387
295.175
285.908
275.072
261.925
245.142
225.068
195.246
167.388
330.022
330.275
330.271
329.815
329.037
327.576
325.45
322.975
319.606
315.284
310.214
303.431
295.184
285.363
272.618
256.656
235.704
209.295
169.736
89.5249
331.199
331.551
331.634
331.572
330.853
329.782
327.923
325.175
321.963
317.711
311.921
305.481
296.372
284.837
270.707
252.88
226.735
190.833
147.239
-2.38933
332.488
332.857
333.01
333.199
333.119
332.144
330.43
328.167
324.528
320.48
314.969
307.365
298.105
286.231
269.414
248.257
226.395
173.514
129.274
22.747
333.83
334.091
334.62
335.073
335.255
334.777
333.367
330.565
327.76
323.025
318.776
310.898
300.744
284.896
275.578
240.859
228.123
173.681
119.253
61.4062
335.295
335.525
336.385
336.557
338.997
336.31
337.485
332.673
331.234
324.279
325.719
308.09
311.382
279.593
277.894
239.555
218.125
180.606
123.54
90.6141
337.169
336.612
338.686
337.627
342.129
336.717
342.167
331.458
338.206
318.868
335.897
303.686
306.956
276.043
263.443
239.287
205.775
188.179
142.848
110.933
339.259
339.297
340.663
339.059
346.082
335.056
347.359
328.155
337.95
318.129
325.09
298.963
285.609
269.721
250.77
241.241
210.48
196.956
163.903
127.396
340.815
339.735
340.534
339.486
342.329
335.859
341.393
328.471
329.15
315.991
301.713
290.013
276.165
274.038
257.448
253.313
230.131
207.064
176.362
140.682
341.189
340.9
341.42
345.153
338.013
337.57
331.94
328.39
320.173
313.388
295.915
300.648
291.052
294.3
276.068
262.879
241.05
214.624
183.307
149.054
340.502
338.069
337.78
349.554
331.051
348.498
329.119
342.638
326.094
338.728
315.783
326.726
311.123
302.667
285.552
266.118
242.604
216.947
187.204
153.264
344.775
345.092
337.324
351.446
336.623
365.36
335.822
366.017
330.252
364.372
327.892
337.203
312.97
300.849
286.754
267.535
243.351
217.798
189.415
155.763
-212.47
-144.63
-207.653
-183.07
-189.097
-207.3
-233.921
-262.554
-294.316
-334.708
-384.605
-433.72
-469.584
-489.203
-491.928
-475.691
-440.211
-394.819
-345.588
-292.806
-243.63
-198.053
-157.166
-121.856
-92.3936
-67.2457
-44.0645
-24.5287
-8.38014
5.44258
16.1155
23.8185
28.7464
31.2469
31.8134
30.9844
29.2311
26.9258
24.3318
21.6182
18.8879
16.1874
13.6674
11.4259
9.56078
8.10906
7.06795
6.38304
6.11942
6.11953
6.34925
6.7525
7.21651
7.61172
7.82771
7.92832
7.82441
7.47681
6.83429
5.91213
4.85193
3.80987
2.87638
2.11997
1.5705
1.28874
1.25171
1.28186
1.3483
1.41861
1.48875
1.49693
1.50998
1.43705
1.35138
1.20768
1.0035
0.792183
0.501908
0.188619
-121.661
-160.314
-182.262
-220.696
-228.363