/*--------------------------------*- C++ -*----------------------------------*\
| =========                 |                                                 |
| \\      /  F ield         | OpenFOAM: The Open Source CFD Toolbox           |
|  \\    /   O peration     | Version:  2306                                  |
|   \\  /    A nd           | Website:  www.openfoam.com                      |
|    \\/     M anipulation  |                                                 |
\*---------------------------------------------------------------------------*/
FoamFile
{
    version     2.0;
    format      ascii;
    arch        "LSB;label=32;scalar=64";
    class       surfaceScalarField;
    location    "0.05";
    object      phi;
}
// * * * * * * * * * * * * * * * * * * * * * * * * * * * * * * * * * * * * * //

dimensions      [0 3 -1 0 0 0 0];

oriented        oriented;

internalField   nonuniform List<scalar> 
8520
(
0.00992783
7.21718e-05
0.00978983
0.000137994
0.00962978
0.000160053
0.00946883
0.000160953
0.00931026
0.000158564
0.00914967
0.000160591
0.00898718
0.000162494
0.00882215
0.000165031
0.00865422
0.000167929
0.00848647
0.000167751
0.00831941
0.000167053
0.00815227
0.000167142
0.00798725
0.000165025
0.00782444
0.000162803
0.0076619
0.00016255
0.00750121
0.000160684
0.00734369
0.000157527
0.00718703
0.000156651
0.00703134
0.000155692
0.00687937
0.000151969
0.00673014
0.000149228
0.0065819
0.000148245
0.00643698
0.000144923
0.00629838
0.000138594
0.00616369
0.000134695
0.0060299
0.00013379
0.00589887
0.000131032
0.00577546
0.00012341
0.00566097
0.00011449
0.00555271
0.000108258
0.00544905
0.000103654
0.00535163
9.74236e-05
0.00526349
8.81397e-05
0.005187
7.64921e-05
0.00512375
6.32432e-05
0.00507494
4.88151e-05
0.00504095
3.39916e-05
0.00502088
2.00697e-05
0.00501251
8.36879e-06
0.00501279
-2.76667e-07
0.00501836
-5.57308e-06
0.00502668
-8.31937e-06
0.00503531
-8.63545e-06
0.00504263
-7.31484e-06
0.0050475
-4.87013e-06
0.00504916
-1.66182e-06
0.00504756
1.60117e-06
0.00504278
4.78195e-06
0.00503504
7.73796e-06
0.00502459
1.04483e-05
0.00501157
1.30185e-05
0.00499607
1.54981e-05
0.00497804
1.80377e-05
0.00495727
2.07696e-05
0.00493351
2.37532e-05
0.00490631
2.72081e-05
0.00487525
3.10588e-05
0.00483968
3.55695e-05
0.00479896
4.07195e-05
0.00475241
4.65535e-05
0.00469896
5.34441e-05
0.00463796
6.09985e-05
0.00456799
6.99769e-05
0.00448805
7.99318e-05
0.0043968
9.12538e-05
0.00429236
0.00010444
0.00417381
0.000118546
0.00403831
0.000135506
0.00388492
0.000153392
0.00371093
0.00017399
0.00351388
0.000197048
0.00329302
0.000220855
0.00304366
0.000249369
0.00276676
0.000276897
0.0024586
0.000308155
0.00211836
0.000340245
0.00174888
0.000369478
0.00134659
0.000402294
0.000921516
0.00042507
0.000445662
0.000475854
0.0100357
3.64486e-05
0.0100798
9.38964e-05
0.0101109
0.000129018
0.0101272
0.000144569
0.0101361
0.000149751
0.0101437
0.000152909
0.01015
0.000156213
0.0101542
0.000160828
0.0101551
0.000167053
0.0101516
0.000171248
0.0101445
0.00017413
0.010134
0.000177684
0.0101204
0.000178644
0.010105
0.000178163
0.0100874
0.000180132
0.0100671
0.000181048
0.0100453
0.00017931
0.0100222
0.000179764
0.00999641
0.000181442
0.00996871
0.000179668
0.00994029
0.000177647
0.00990988
0.000178656
0.00987727
0.000177536
0.00984433
0.000171535
0.00981206
0.000166962
0.00977871
0.000167136
0.00974361
0.00016614
0.00970836
0.000158653
0.00967445
0.000148408
0.00964147
0.000141235
0.00960894
0.000136181
0.00957785
0.000128517
0.00954956
0.000116423
0.00952429
0.000101762
0.00950125
8.62824e-05
0.00948007
7.00019e-05
0.0094612
5.28547e-05
0.00944522
3.60582e-05
0.00943222
2.13649e-05
0.00942229
9.65335e-06
0.00941545
1.26948e-06
0.00941196
-4.83077e-06
0.00941076
-7.43581e-06
0.00941116
-7.71401e-06
0.00941219
-5.90118e-06
0.00941317
-2.64086e-06
0.00941302
1.74509e-06
0.00941106
6.74232e-06
0.00940703
1.17704e-05
0.00940064
1.68427e-05
0.00939189
2.17613e-05
0.0093807
2.66888e-05
0.009367
3.17404e-05
0.00935078
3.69871e-05
0.00933169
4.28455e-05
0.00930976
4.9139e-05
0.00928438
5.64341e-05
0.00925531
6.46487e-05
0.00922211
7.39105e-05
0.00918378
8.489e-05
0.00914035
9.6868e-05
0.00909019
0.000111166
0.00903302
0.000127147
0.00896785
0.000145103
0.00889257
0.00016653
0.00880783
0.000189175
0.00870989
0.000216494
0.00859898
0.000246416
0.00847331
0.000279062
0.00832864
0.000318657
0.0081677
0.000357984
0.00798296
0.000405596
0.00777585
0.000456484
0.00754523
0.000507511
0.00728199
0.000571401
0.00699592
0.000626311
0.00667325
0.000692147
0.00631945
0.000756097
0.00593789
0.000806627
0.00087054
0.00551302
0.0100142
2.22601e-05
0.010044
6.40906e-05
0.0100778
9.52182e-05
0.0101073
0.000115089
0.0101312
0.000125782
0.0101524
0.000131778
0.0101733
0.000135324
0.0101955
0.000138558
0.010219
0.000143556
0.010242
0.000148232
0.0102645
0.000151689
0.0102862
0.000155948
0.0103061
0.000158785
0.0103252
0.000159074
0.0103446
0.000160658
0.0103631
0.000162631
0.0103804
0.000161953
0.0103983
0.000161922
0.0104156
0.000164085
0.0104312
0.000164069
0.0104466
0.000162252
0.0104623
0.000162951
0.0104762
0.000163675
0.010488
0.000159669
0.0105005
0.000154502
0.010514
0.000153675
0.0105261
0.000154054
0.0105355
0.000149248
0.0105436
0.000140217
0.0105522
0.000132636
0.0105609
0.00012756
0.0105684
0.000120954
0.0105745
0.000110378
0.0105788
9.7416e-05
0.010581
8.41139e-05
0.0105806
7.03552e-05
0.010578
5.5533e-05
0.0105735
4.05299e-05
0.0105679
2.69632e-05
0.0105618
1.57613e-05
0.0105558
7.22973e-06
0.0105497
1.3117e-06
0.0105435
-1.24543e-06
0.0105371
-1.31846e-06
0.0105303
8.62902e-07
0.0105229
4.8066e-06
0.0105146
1.0015e-05
0.0105055
1.58783e-05
0.0104954
2.18767e-05
0.0104844
2.77698e-05
0.0104725
3.36767e-05
0.0104598
3.94232e-05
0.0104461
4.54471e-05
0.0104312
5.18387e-05
0.0104154
5.8729e-05
0.0103977
6.6836e-05
0.0103785
7.56203e-05
0.0103569
8.62123e-05
0.0103326
9.81771e-05
0.0103057
0.000111798
0.0102745
0.0001281
0.0102398
0.000145873
0.0101999
0.000167007
0.0101541
0.0001909
0.0101032
0.000217429
0.0100436
0.000248847
0.009977
0.000283053
0.00990146
0.000321957
0.0098137
0.000366828
0.00971791
0.000414439
0.00960615
0.000469746
0.00948135
0.000530395
0.00934403
0.000593803
0.009183
0.000668541
0.00901195
0.00074245
0.00881489
0.000823379
0.00859624
0.000910792
0.00836229
0.000990045
0.00808924
0.00107968
0.00115609
0.00780369
0.010007
1.52906e-05
0.0100267
4.43485e-05
0.0100518
7.01082e-05
0.0100769
9.00436e-05
0.0101002
0.000102425
0.0101223
0.000109687
0.0101432
0.000114412
0.0101644
0.00011743
0.010187
0.000120943
0.0102105
0.000124741
0.0102343
0.000127865
0.0102585
0.000131683
0.0102823
0.000135026
0.0103054
0.000135983
0.0103289
0.000137154
0.0103524
0.000139162
0.0103753
0.000139004
0.0103989
0.0001383
0.0104231
0.000139939
0.0104462
0.000140913
0.0104691
0.000139385
0.010493
0.000139041
0.0105167
0.000140041
0.0105384
0.000137875
0.0105598
0.000133175
0.0105823
0.000131143
0.010605
0.000131392
0.0106258
0.000128406
0.0106449
0.000121081
0.0106636
0.000113976
0.0106818
0.000109374
0.0106986
0.000104193
0.0107134
9.55511e-05
0.0107263
8.44545e-05
0.0107372
7.32267e-05
0.0107453
6.23019e-05
0.0107499
5.0941e-05
0.0107511
3.93238e-05
0.0107495
2.85605e-05
0.0107456
1.96008e-05
0.0107402
1.27222e-05
0.0107334
8.10857e-06
0.0107261
6.00382e-06
0.0107184
6.3794e-06
0.0107102
9.09781e-06
0.0107015
1.3517e-05
0.0106923
1.9221e-05
0.0106827
2.54444e-05
0.0106728
3.18109e-05
0.0106623
3.82173e-05
0.0106517
4.42708e-05
0.0106405
5.06807e-05
0.0106289
5.69766e-05
0.0106167
6.40155e-05
0.0106035
7.19621e-05
0.0105898
8.05657e-05
0.010574
9.14073e-05
0.0105572
0.000102977
0.0105382
0.000117178
0.0105165
0.000133553
0.010493
0.000151566
0.010465
0.000173868
0.0104343
0.000197771
0.0103995
0.000225673
0.0103583
0.000258625
0.0103143
0.000292874
0.0102618
0.000335488
0.0102031
0.000380652
0.0101388
0.000431121
0.0100619
0.000491363
0.00998034
0.000551317
0.00988537
0.00062537
0.00977971
0.000699462
0.00966451
0.000783733
0.00953144
0.000875522
0.00939075
0.000964071
0.00922788
0.00107366
0.00905393
0.00116399
0.00886043
0.00127318
0.00137551
0.00864101
0.0100044
1.09398e-05
0.0100166
3.21266e-05
0.010035
5.16729e-05
0.0100563
6.87643e-05
0.0100779
8.07758e-05
0.0100989
8.87639e-05
0.0101193
9.39485e-05
0.0101397
9.70409e-05
0.010161
9.96519e-05
0.0101831
0.000102616
0.0102058
0.000105224
0.0102293
0.000108154
0.010253
0.000111277
0.0102762
0.000112837
0.0102996
0.000113788
0.0103234
0.000115356
0.0103467
0.000115676
0.01037
0.000114966
0.0103942
0.000115803
0.0104182
0.000116863
0.0104417
0.000115856
0.0104658
0.000115019
0.01049
0.000115797
0.010513
0.000114905
0.010535
0.000111103
0.010558
0.000108177
0.0105816
0.000107786
0.0106037
0.000106278
0.0106236
0.000101203
0.0106425
9.50931e-05
0.0106614
9.04925e-05
0.0106796
8.59344e-05
0.0106962
7.90022e-05
0.0107104
7.02187e-05
0.0107221
6.15632e-05
0.0107308
5.35929e-05
0.0107363
4.54582e-05
0.0107387
3.68924e-05
0.0107387
2.85904e-05
0.0107369
2.13833e-05
0.0107338
1.58701e-05
0.0107296
1.22607e-05
0.0107246
1.10046e-05
0.0107189
1.20424e-05
0.0107129
1.5158e-05
0.0107064
2.00241e-05
0.0106999
2.57423e-05
0.010693
3.23411e-05
0.0106859
3.88613e-05
0.0106787
4.54648e-05
0.0106707
5.22019e-05
0.0106629
5.85515e-05
0.0106538
6.60084e-05
0.0106445
7.33755e-05
0.0106343
8.21151e-05
0.0106224
9.24887e-05
0.0106105
0.000103335
0.0105957
0.000117759
0.0105799
0.000132929
0.0105625
0.000150948
0.010541
0.000173093
0.0105193
0.000195587
0.0104924
0.000224669
0.0104621
0.000255939
0.0104301
0.00029062
0.0103892
0.000333827
0.0103478
0.000376881
0.0102973
0.000431149
0.0102408
0.000487607
0.0101798
0.000552364
0.0101046
0.000626504
0.01003
0.000699945
0.00993444
0.000795063
0.00983794
0.000880231
0.00972856
0.000984901
0.00959586
0.00109677
0.00947275
0.00119677
0.00930909
0.00132765
0.00914652
0.00143576
0.00155366
0.00896837
0.010003
7.90411e-06
0.0100118
2.33579e-05
0.0100256
3.79025e-05
0.0100431
5.1194e-05
0.0100625
6.14496e-05
0.0100824
6.88145e-05
0.0101025
7.38991e-05
0.0101224
7.70973e-05
0.0101428
7.9273e-05
0.010164
8.14021e-05
0.0101858
8.34381e-05
0.0102084
8.55779e-05
0.0102315
8.81038e-05
0.0102545
8.98362e-05
0.0102776
9.07153e-05
0.0103011
9.18918e-05
0.0103242
9.25092e-05
0.0103472
9.19703e-05
0.0103709
9.2096e-05
0.0103948
9.29864e-05
0.010418
9.26826e-05
0.0104412
9.17986e-05
0.010465
9.19801e-05
0.0104883
9.16477e-05
0.0105104
8.90345e-05
0.0105323
8.62644e-05
0.0105545
8.55173e-05
0.010576
8.48019e-05
0.0105959
8.1292e-05
0.010615
7.60644e-05
0.0106337
7.17352e-05
0.0106514
6.8208e-05
0.0106669
6.35383e-05
0.0106799
5.72618e-05
0.0106907
5.07209e-05
0.0106996
4.47e-05
0.0107063
3.87587e-05
0.0107107
3.24522e-05
0.010713
2.63358e-05
0.0107132
2.11844e-05
0.0107117
1.73825e-05
0.0107086
1.53081e-05
0.0107048
1.48741e-05
0.0107003
1.64851e-05
0.0106957
1.97858e-05
0.0106913
2.4463e-05
0.0106866
3.04363e-05
0.0106824
3.64877e-05
0.0106779
4.34106e-05
0.0106733
5.00318e-05
0.0106688
5.67184e-05
0.010663
6.43772e-05
0.0106577
7.12968e-05
0.0106506
8.0461e-05
0.0106429
8.9822e-05
0.010635
0.000100411
0.0106238
0.000114488
0.0106137
0.000127838
0.0106003
0.000146391
0.0105848
0.000166397
0.0105699
0.000188002
0.010548
0.000217494
0.0105285
0.000244204
0.0105021
0.000282256
0.0104732
0.000319601
0.0104427
0.000364238
0.0104015
0.000418132
0.0103645
0.000468119
0.0103104
0.000541715
0.0102591
0.000603658
0.010198
0.000687624
0.0101197
0.000778294
0.0100511
0.000863585
0.00995006
0.000981303
0.00985407
0.0010809
0.00974036
0.00121048
0.00960835
0.00132878
0.00947198
0.00146403
0.00930591
0.00160183
0.00172321
0.00913635
0.0100024
5.54242e-06
0.0100093
1.64331e-05
0.0100204
2.67864e-05
0.0100353
3.63366e-05
0.0100525
4.42593e-05
0.0100711
5.02058e-05
0.0100904
5.45379e-05
0.0101101
5.74222e-05
0.0101301
5.92682e-05
0.0101507
6.0787e-05
0.0101719
6.22446e-05
0.0101938
6.37108e-05
0.0102163
6.55389e-05
0.0102391
6.71009e-05
0.0102619
6.79214e-05
0.010285
6.87412e-05
0.0103081
6.93822e-05
0.010331
6.90954e-05
0.0103542
6.89297e-05
0.0103776
6.95694e-05
0.0104007
6.96153e-05
0.0104236
6.88337e-05
0.0104469
6.87057e-05
0.0104698
6.87971e-05
0.0104915
6.7318e-05
0.0105127
6.4995e-05
0.0105344
6.38635e-05
0.0105558
6.33818e-05
0.0105758
6.12924e-05
0.0105943
5.76318e-05
0.0106116
5.43585e-05
0.010628
5.18506e-05
0.0106428
4.87217e-05
0.0106558
4.42863e-05
0.010667
3.9466e-05
0.0106765
3.52537e-05
0.0106839
3.13228e-05
0.0106889
2.74232e-05
0.0106917
2.35576e-05
0.0106926
2.02789e-05
0.010692
1.80608e-05
0.0106904
1.68533e-05
0.0106878
1.74763e-05
0.0106851
1.91494e-05
0.0106822
2.27276e-05
0.0106793
2.73722e-05
0.0106771
3.26014e-05
0.0106743
3.92871e-05
0.0106727
4.50728e-05
0.0106702
5.24638e-05
0.0106675
5.94084e-05
0.0106655
6.644e-05
0.0106608
7.59465e-05
0.0106577
8.36104e-05
0.0106521
9.5382e-05
0.0106452
0.000107305
0.0106398
0.000119941
0.0106288
0.000138805
0.0106208
0.000154388
0.0106088
0.000178451
0.0105941
0.000202684
0.0105818
0.000229727
0.0105601
0.000265971
0.0105443
0.00029799
0.0105174
0.000346557
0.0104926
0.000389023
0.0104636
0.000447084
0.0104226
0.000509206
0.0103904
0.000573874
0.0103363
0.000657791
0.0102858
0.000738087
0.0102252
0.000838909
0.0101507
0.000938041
0.0100728
0.00105921
0.00997496
0.00117876
0.00987421
0.00131123
0.00974787
0.00145511
0.00960891
0.001603
0.00946123
0.00174951
0.00191031
0.00927412
0.010002
3.54258e-06
0.0100079
1.05176e-05
0.0100175
1.71886e-05
0.0100305
2.33079e-05
0.0100461
2.86811e-05
0.0100635
3.28048e-05
0.0100822
3.59065e-05
0.0101015
3.80643e-05
0.0101213
3.94498e-05
0.0101416
4.04723e-05
0.0101625
4.1416e-05
0.0101838
4.23367e-05
0.0102059
4.351e-05
0.0102283
4.46344e-05
0.010251
4.52639e-05
0.0102739
4.58318e-05
0.0102969
4.6411e-05
0.0103197
4.63227e-05
0.0103425
4.60491e-05
0.0103657
4.63726e-05
0.0103887
4.66046e-05
0.0104114
4.62128e-05
0.010434
4.60715e-05
0.0104566
4.62063e-05
0.0104785
4.53749e-05
0.0104998
4.37396e-05
0.0105208
4.28287e-05
0.0105414
4.27814e-05
0.0105608
4.18732e-05
0.0105788
3.96662e-05
0.0105958
3.73432e-05
0.010612
3.56314e-05
0.010627
3.37674e-05
0.0106401
3.11817e-05
0.0106511
2.8421e-05
0.0106603
2.60611e-05
0.0106676
2.40873e-05
0.010673
2.19491e-05
0.0106766
1.99753e-05
0.0106787
1.82529e-05
0.0106793
1.73641e-05
0.0106787
1.75071e-05
0.0106777
1.84726e-05
0.0106758
2.10598e-05
0.0106743
2.41711e-05
0.010673
2.87227e-05
0.0106715
3.40593e-05
0.0106716
3.92384e-05
0.0106702
4.6426e-05
0.0106704
5.22716e-05
0.01067
5.98761e-05
0.0106679
6.84789e-05
0.0106685
7.53576e-05
0.0106641
8.79743e-05
0.0106628
9.66849e-05
0.0106591
0.000111035
0.0106524
0.000126651
0.0106501
0.000141095
0.0106391
0.00016536
0.0106346
0.000182971
0.0106228
0.000214547
0.010612
0.000240513
0.0106015
0.000276446
0.0105807
0.000318747
0.0105717
0.000355585
0.0105433
0.000417394
0.0105246
0.000465812
0.0104977
0.000536069
0.0104615
0.00061016
0.0104286
0.000690646
0.0103803
0.000786369
0.010333
0.000886253
0.0102669
0.00100411
0.0101973
0.00112882
0.0101159
0.00126021
0.0100129
0.00141415
0.00989758
0.00157048
0.00977288
0.00172769
0.00960806
0.00191434
0.00208178
0.0094366
0.0100018
1.7331e-06
0.0100072
5.14724e-06
0.0100159
8.42254e-06
0.0100278
1.14251e-05
0.0100424
1.41233e-05
0.010059
1.62401e-05
0.010077
1.78514e-05
0.0100961
1.90062e-05
0.0101157
1.97666e-05
0.0101359
2.03064e-05
0.0101566
2.07745e-05
0.0101777
2.12278e-05
0.0101994
2.18211e-05
0.0102216
2.24221e-05
0.010244
2.27806e-05
0.0102668
2.30951e-05
0.0102897
2.3473e-05
0.0103126
2.34909e-05
0.0103353
2.33366e-05
0.0103581
2.35034e-05
0.010381
2.37603e-05
0.0104035
2.36527e-05
0.010426
2.35676e-05
0.0104486
2.36773e-05
0.0104705
2.34689e-05
0.0104914
2.28692e-05
0.0105117
2.25062e-05
0.0105318
2.26153e-05
0.0105514
2.2304e-05
0.0105698
2.13193e-05
0.0105867
2.03517e-05
0.0106026
1.97513e-05
0.010617
1.93653e-05
0.0106297
1.84841e-05
0.0106406
1.75451e-05
0.0106498
1.68449e-05
0.0106578
1.61221e-05
0.0106637
1.60161e-05
0.0106684
1.5301e-05
0.0106709
1.57612e-05
0.0106722
1.60327e-05
0.0106727
1.70688e-05
0.0106716
1.94855e-05
0.0106717
2.10149e-05
0.0106702
2.56527e-05
0.0106704
2.85568e-05
0.0106706
3.37864e-05
0.0106702
3.96613e-05
0.0106728
4.38617e-05
0.0106721
5.29961e-05
0.0106742
5.77783e-05
0.0106753
6.73558e-05
0.0106736
7.70681e-05
0.0106769
8.46362e-05
0.0106723
0.000101311
0.0106739
0.000109425
0.0106705
0.000130078
0.0106663
0.000145211
0.010666
0.000165734
0.0106558
0.00019316
0.0106568
0.000213574
0.010644
0.000253292
0.0106394
0.000281004
0.0106303
0.000327899
0.0106161
0.000369727
0.0106057
0.000427789
0.0105895
0.000482052
0.0105697
0.000555863
0.010547
0.000632837
0.0105216
0.000716091
0.0104855
0.000822409
0.0104477
0.000924095
0.0103919
0.00105986
0.0103439
0.00117682
0.0102559
0.00134822
0.0101774
0.0014927
0.0100707
0.00167715
0.00993738
0.00186101
0.00980135
0.00205037
0.00227477
0.00960836
0.0100017
7.82134e-09
0.0100068
2.32683e-08
0.0100152
3.88661e-08
0.0100266
5.50251e-08
0.0100407
7.20876e-08
0.0100568
9.00233e-08
0.0100745
1.10031e-07
0.0100934
1.31458e-07
0.010113
1.56698e-07
0.0101332
1.83343e-07
0.0101537
2.16335e-07
0.0101747
2.49715e-07
0.0101962
2.94719e-07
0.0102183
3.36365e-07
0.0102407
3.97823e-07
0.0102633
4.4886e-07
0.0102863
5.34167e-07
0.0103092
5.96942e-07
0.0103318
7.11937e-07
0.0103545
7.94075e-07
0.0103773
9.45802e-07
0.0103999
1.05633e-06
0.0104222
1.24386e-06
0.0104445
1.40718e-06
0.0104663
1.6281e-06
0.0104873
1.86732e-06
0.0105077
2.1285e-06
0.0105279
2.47071e-06
0.0105474
2.7868e-06
0.0105655
3.22954e-06
0.0105822
3.66645e-06
0.0105977
4.23318e-06
0.0106122
4.8308e-06
0.0106251
5.56349e-06
0.0106363
6.34058e-06
0.0106459
7.28616e-06
0.0106537
8.26883e-06
0.0106603
9.49246e-06
0.0106647
1.08897e-05
0.010668
1.24768e-05
0.0106696
1.43746e-05
0.0106703
1.64295e-05
0.010671
1.87998e-05
0.0106701
2.18721e-05
0.0106712
2.45537e-05
0.0106709
2.88202e-05
0.010672
3.27348e-05
0.0106746
3.70458e-05
0.0106743
4.41235e-05
0.0106794
4.79075e-05
0.0106793
5.79346e-05
0.0106824
6.41963e-05
0.0106856
7.39137e-05
0.0106839
8.6303e-05
0.0106897
9.556e-05
0.0106856
0.000113534
0.01069
0.000125622
0.0106868
0.000148399
0.0106873
0.000165237
0.0106869
0.000193592
0.0106823
0.000218148
0.010684
0.00025158
0.0106778
0.000287262
0.0106761
0.000329599
0.0106702
0.000375643
0.0106666
0.000431383
0.010655
0.000493641
0.0106511
0.000559734
0.0106311
0.000652867
0.0106257
0.00072149
0.0105917
0.000856362
0.0105737
0.00094213
0.010536
0.0010975
0.0104839
0.001229
0.0104343
0.00139774
0.0103435
0.00158349
0.0102707
0.00175001
0.0101316
0.00200007
0.0100039
0.00217814
0.00245335
0.00982528
0.0100017
-1.71759e-06
0.0100069
-5.10138e-06
0.0100152
-8.34579e-06
0.0100266
-1.13162e-05
0.0100407
-1.39805e-05
0.0100568
-1.60622e-05
0.0100746
-1.76338e-05
0.0100934
-1.87463e-05
0.010113
-1.94567e-05
0.0101332
-1.99435e-05
0.0101537
-2.03463e-05
0.0101747
-2.07345e-05
0.0101963
-2.12368e-05
0.0102183
-2.1758e-05
0.0102407
-2.19908e-05
0.0102634
-2.22095e-05
0.0102863
-2.24109e-05
0.0103092
-2.23145e-05
0.0103319
-2.19188e-05
0.0103546
-2.19395e-05
0.0103774
-2.18773e-05
0.0104001
-2.1568e-05
0.0104224
-2.1098e-05
0.0104447
-2.08859e-05
0.0104666
-2.02563e-05
0.0104876
-1.91464e-05
0.010508
-1.83216e-05
0.0105282
-1.76819e-05
0.0105478
-1.67947e-05
0.0105659
-1.49318e-05
0.0105826
-1.29994e-05
0.0105984
-1.15397e-05
0.0106127
-9.50388e-06
0.0106262
-7.87934e-06
0.0106371
-4.60801e-06
0.0106471
-2.70015e-06
0.010655
3.20133e-07
0.0106612
3.36156e-06
0.0106668
5.2679e-06
0.0106689
1.03759e-05
0.0106723
1.10045e-05
0.0106724
1.62814e-05
0.0106731
1.80627e-05
0.0106746
2.04305e-05
0.0106729
2.62272e-05
0.010677
2.47858e-05
0.0106757
3.39481e-05
0.0106796
3.32188e-05
0.0106827
4.10122e-05
0.0106831
4.74332e-05
0.010691
5.00937e-05
0.010689
6.62048e-05
0.0106975
6.54213e-05
0.0106966
8.71551e-05
0.0107015
9.0686e-05
0.0107052
0.000109859
0.0107037
0.000127117
0.0107125
0.00013955
0.0107079
0.000169819
0.0107158
0.000185783
0.0107139
0.000219972
0.0107204
0.000245103
0.0107162
0.000291479
0.0107277
0.000318117
0.01072
0.000383316
0.0107299
0.000421513
0.0107263
0.000497196
0.0107274
0.000558676
0.0107316
0.000648669
0.0107156
0.000737485
0.0107252
0.000846739
0.0106937
0.000973597
0.0106952
0.00109605
0.0106405
0.00128364
0.0106191
0.0014192
0.0105482
0.00165439
0.0104735
0.00182471
0.0103676
0.00210591
0.0102269
0.00231893
0.0025943
0.0100859
0.0100018
-3.52764e-06
0.0100072
-1.04735e-05
0.010016
-1.71146e-05
0.0100278
-2.32025e-05
0.0100424
-2.85433e-05
0.010059
-3.2633e-05
0.010077
-3.56962e-05
0.0100961
-3.78135e-05
0.0101158
-3.915e-05
0.010136
-4.01216e-05
0.0101566
-4.10009e-05
0.0101778
-4.18604e-05
0.0101995
-4.29421e-05
0.0102217
-4.39946e-05
0.0102442
-4.4494e-05
0.010267
-4.49805e-05
0.0102899
-4.53709e-05
0.0103128
-4.51956e-05
0.0103355
-4.46535e-05
0.0103585
-4.48778e-05
0.0103814
-4.47455e-05
0.010404
-4.42228e-05
0.0104265
-4.36285e-05
0.0104492
-4.35366e-05
0.0104711
-4.22041e-05
0.0104921
-4.01617e-05
0.0105126
-3.8723e-05
0.0105329
-3.80077e-05
0.0105526
-3.65072e-05
0.0105711
-3.34364e-05
0.0105883
-3.02041e-05
0.0106043
-2.7591e-05
0.0106191
-2.42083e-05
0.010632
-2.0841e-05
0.0106433
-1.58436e-05
0.010653
-1.24183e-05
0.0106614
-8.06682e-06
0.0106681
-3.34067e-06
0.0106727
5.84363e-07
0.0106765
6.66714e-06
0.0106782
9.22095e-06
0.0106792
1.53275e-05
0.0106806
1.66496e-05
0.0106794
2.16722e-05
0.0106827
2.29022e-05
0.0106809
2.65543e-05
0.0106855
2.93811e-05
0.0106868
3.19469e-05
0.0106895
3.82968e-05
0.0106957
4.12081e-05
0.0106959
4.98961e-05
0.0107047
5.7384e-05
0.0107051
6.50498e-05
0.0107128
7.94648e-05
0.0107147
8.881e-05
0.010722
0.000102511
0.0107232
0.000125921
0.010733
0.000129716
0.0107316
0.000171209
0.0107449
0.000172534
0.0107449
0.000219963
0.0107533
0.00023667
0.010765
0.00027986
0.0107642
0.00031885
0.0107855
0.00036203
0.0107795
0.000427483
0.0108104
0.000466343
0.0107971
0.000572007
0.0108318
0.00061393
0.0108212
0.000748039
0.0108455
0.000822497
0.0108392
0.000979856
0.0108401
0.00109515
0.0108364
0.0012874
0.0108029
0.00145266
0.0107832
0.00167413
0.0106935
0.00191436
0.0106402
0.0021592
0.0104964
0.0024628
0.00272571
0.010365
0.010002
-5.52839e-06
0.0100079
-1.63916e-05
0.0100175
-2.67168e-05
0.0100306
-3.62371e-05
0.0100461
-4.41297e-05
0.0100636
-5.0044e-05
0.0100822
-5.43396e-05
0.0101016
-5.71861e-05
0.0101214
-5.8985e-05
0.0101417
-6.04569e-05
0.0101626
-6.18504e-05
0.010184
-6.32633e-05
0.010206
-6.49972e-05
0.0102286
-6.65029e-05
0.0102512
-6.71806e-05
0.0102742
-6.79512e-05
0.0102972
-6.83695e-05
0.0103201
-6.8063e-05
0.010343
-6.75513e-05
0.0103663
-6.82147e-05
0.0103893
-6.77628e-05
0.0104121
-6.70367e-05
0.0104348
-6.62765e-05
0.0104576
-6.63464e-05
0.0104796
-6.4234e-05
0.010501
-6.15796e-05
0.0105224
-6.0029e-05
0.010543
-5.86377e-05
0.0105629
-5.64501e-05
0.0105809
-5.13617e-05
0.0105985
-4.78016e-05
0.010615
-4.41435e-05
0.01063
-3.92242e-05
0.0106445
-3.53409e-05
0.0106546
-2.59308e-05
0.0106664
-2.42547e-05
0.0106721
-1.37264e-05
0.0106804
-1.16527e-05
0.0106842
-3.24697e-06
0.0106866
4.27027e-06
0.0106917
4.19865e-06
0.0106878
1.92058e-05
0.010694
1.04567e-05
0.0106889
2.67031e-05
0.010693
1.88454e-05
0.0106937
2.59052e-05
0.0106925
3.05347e-05
0.0107016
2.2801e-05
0.0106957
4.42421e-05
0.0107107
2.61899e-05
0.0107041
5.65393e-05
0.0107179
4.35565e-05
0.0107187
6.42695e-05
0.010723
7.51102e-05
0.0107353
7.65518e-05
0.0107321
0.000105662
0.0107487
0.000109346
0.0107467
0.000131732
0.0107643
0.00015359
0.0107613
0.000175557
0.0107865
0.000194809
0.0107797
0.000243413
0.0108113
0.000248232
0.0108065
0.000323737
0.0108388
0.000329647
0.0108461
0.000420212
0.0108674
0.000445056
0.0108956
0.000543767
0.0109075
0.00060209
0.0109488
0.000706721
0.0109517
0.000819561
0.0110034
0.000928166
0.0109916
0.00110699
0.0110395
0.00123945
0.0110113
0.00148086
0.0110201
0.00166532
0.0109719
0.00196262
0.0109222
0.0022089
0.0108235
0.00256146
0.00288798
0.0106612
0.0100024
-7.89132e-06
0.0100093
-2.33201e-05
0.0100204
-3.78387e-05
0.0100353
-5.11032e-05
0.0100525
-6.13308e-05
0.0100711
-6.86664e-05
0.0100905
-7.37174e-05
0.0101102
-7.68812e-05
0.0101302
-7.90126e-05
0.0101508
-8.11e-05
0.0101721
-8.30738e-05
0.010194
-8.51688e-05
0.0102166
-8.76001e-05
0.0102394
-8.92913e-05
0.0102622
-9.00205e-05
0.0102854
-9.11784e-05
0.0103086
-9.15461e-05
0.0103316
-9.10495e-05
0.0103548
-9.07657e-05
0.0103784
-9.17955e-05
0.0104015
-9.08744e-05
0.0104247
-9.02311e-05
0.010448
-8.95981e-05
0.0104712
-8.94807e-05
0.010493
-8.60576e-05
0.0105145
-8.31378e-05
0.0105364
-8.19375e-05
0.0105581
-8.02736e-05
0.0105786
-7.69643e-05
0.0105971
-6.98906e-05
0.0106153
-6.598e-05
0.0106318
-6.06455e-05
0.0106475
-5.49155e-05
0.0106612
-4.89972e-05
0.0106727
-3.74635e-05
0.010684
-3.56157e-05
0.0106907
-2.04053e-05
0.010699
-1.98883e-05
0.0107006
-4.9252e-06
0.010706
-1.12606e-06
0.0107045
5.72039e-06
0.0107068
1.68861e-05
0.0107063
1.09792e-05
0.0107049
2.81054e-05
0.0107081
1.56849e-05
0.0107048
2.91603e-05
0.0107107
2.46793e-05
0.0107098
2.36736e-05
0.0107146
3.94688e-05
0.0107189
2.18701e-05
0.0107222
5.31898e-05
0.0107274
3.83454e-05
0.0107359
5.5786e-05
0.0107345
7.65434e-05
0.0107551
5.59662e-05
0.0107434
0.000117337
0.0107732
7.95133e-05
0.0107641
0.000140891
0.0107851
0.000132566
0.0107965
0.000164114
0.0108012
0.000190128
0.0108319
0.000212782
0.0108304
0.000249733
0.0108708
0.000283307
0.0108722
0.000328218
0.0109197
0.000372699
0.0109249
0.000439863
0.0109839
0.000484823
0.0109928
0.000593125
0.0110584
0.000641161
0.0110813
0.000796624
0.0111385
0.000870967
0.0111836
0.00106194
0.0112174
0.00120559
0.0112633
0.00143497
0.0112714
0.00165726
0.011293
0.00194101
0.0112301
0.0022718
0.0111976
0.00259394
0.00304818
0.0110374
0.010003
-1.09285e-05
0.0100118
-3.20933e-05
0.0100256
-5.16164e-05
0.0100432
-6.86843e-05
0.0100625
-8.06706e-05
0.0100825
-8.8633e-05
0.0101025
-9.37877e-05
0.0101225
-9.68496e-05
0.0101429
-9.94204e-05
0.0101642
-0.000102348
0.010186
-0.000104898
0.0102086
-0.000107793
0.0102318
-0.00011082
0.0102549
-0.000112362
0.010278
-0.000113144
0.0103016
-0.000114752
0.0103248
-0.000114752
0.010348
-0.000114227
0.0103717
-0.000114464
0.0103959
-0.000115988
0.0104189
-0.000113937
0.0104427
-0.000113972
0.0104663
-0.000113175
0.0104902
-0.000113457
0.010512
-0.000107852
0.0105347
-0.000105806
0.010557
-0.000104254
0.0105788
-0.000102029
0.0105997
-9.79159e-05
0.010618
-8.81649e-05
0.0106391
-8.70719e-05
0.0106554
-7.69277e-05
0.0106733
-7.28066e-05
0.0106865
-6.2257e-05
0.0106968
-4.77843e-05
0.0107114
-5.01695e-05
0.0107115
-2.05457e-05
0.010729
-3.73471e-05
0.0107196
4.4773e-06
0.0107341
-1.56547e-05
0.0107256
1.42017e-05
0.0107287
1.38655e-05
0.0107319
7.69449e-06
0.0107182
4.18498e-05
0.0107381
-4.18664e-06
0.0107117
5.55342e-05
0.0107401
-3.67302e-06
0.0107169
4.68696e-05
0.0107355
2.07895e-05
0.0107341
2.33181e-05
0.0107293
5.79482e-05
0.0107536
1.40724e-05
0.0107349
7.45245e-05
0.0107641
4.7314e-05
0.0107544
6.56666e-05
0.0107751
9.66777e-05
0.0107757
7.8816e-05
0.010796
0.000120646
0.0107976
0.000130974
0.0108276
0.000134095
0.0108234
0.000194289
0.0108693
0.000166905
0.0108623
0.000256781
0.0109121
0.000233485
0.0109281
0.000312165
0.0109592
0.000341673
0.0110103
0.000388745
0.0110367
0.000458437
0.011102
0.000527781
0.0111378
0.00060534
0.0112288
0.000705696
0.0112627
0.000837002
0.0113712
0.000953451
0.0114143
0.00116252
0.0115188
0.00133051
0.0115554
0.00162061
0.0116171
0.0018793
0.0116242
0.00226474
0.0115972
0.00262087
0.00312264
0.0115228
0.0100044
-1.52813e-05
0.0100166
-4.43207e-05
0.010035
-7.00601e-05
0.0100563
-8.99765e-05
0.010078
-0.000102335
0.0100989
-0.000109577
0.0101194
-0.000114276
0.0101398
-0.000117267
0.0101612
-0.000120747
0.0101833
-0.000124514
0.010206
-0.000127586
0.0102296
-0.000131375
0.0102534
-0.00013463
0.0102766
-0.00013558
0.0103001
-0.000136587
0.010324
-0.000138656
0.0103474
-0.000138173
0.0103709
-0.000137707
0.0103951
-0.000138695
0.0104194
-0.000140265
0.010443
-0.000137536
0.0104674
-0.00013835
0.0104916
-0.000137454
0.0105151
-0.000136916
0.0105372
-0.000130003
0.0105607
-0.000129231
0.0105848
-0.000128366
0.0106068
-0.000124052
0.0106284
-0.0001195
0.0106457
-0.000105504
0.0106685
-0.000109883
0.010683
-9.14047e-05
0.0107061
-9.59348e-05
0.010715
-7.11443e-05
0.0107336
-6.63479e-05
0.0107394
-5.59578e-05
0.0107477
-2.88801e-05
0.0107543
-4.39308e-05
0.0107491
9.63879e-06
0.010763
-2.9543e-05
0.0107451
3.21211e-05
0.0107628
-3.79179e-06
0.0107455
2.50048e-05
0.0107529
3.43586e-05
0.0107517
-2.93126e-06
0.0107393
6.78744e-05
0.01076
-2.43692e-05
0.0107341
7.28368e-05
0.0107594
-4.52707e-06
0.0107459
3.67828e-05
0.0107488
5.50976e-05
0.0107689
-6.0081e-06
0.0107456
9.77924e-05
0.0107854
7.46111e-06
0.0107606
9.04982e-05
0.010794
6.33018e-05
0.0107929
7.98612e-05
0.0108034
0.000110227
0.0108336
0.000100766
0.0108247
0.000143
0.0108753
0.00014362
0.0108717
0.000170581
0.0109139
0.000214542
0.0109346
0.00021282
0.0109836
0.000263108
0.0109979
0.000327354
0.0110793
0.000307376
0.0110948
0.000442919
0.0111882
0.000434444
0.0112418
0.000551694
0.0113212
0.000626264
0.0114248
0.000733443
0.0115197
0.000858535
0.011641
0.00104124
0.0117437
0.00122776
0.011891
0.00147333
0.0119533
0.00181701
0.0120808
0.00213724
0.0120645
0.00263715
0.00311368
0.0120735
0.010007
-2.22531e-05
0.0100267
-6.40684e-05
0.0100518
-9.51805e-05
0.0100769
-0.000115036
0.0101003
-0.000125712
0.0101224
-0.000131691
0.0101433
-0.000135216
0.0101645
-0.000138428
0.0101871
-0.000143399
0.0102107
-0.000148048
0.0102346
-0.000151466
0.0102589
-0.000155697
0.0102827
-0.000158465
0.0103059
-0.000158748
0.0103295
-0.000160185
0.0103531
-0.00016224
0.0103761
-0.000161217
0.0103999
-0.000161531
0.0104241
-0.00016287
0.0104477
-0.000163844
0.0104704
-0.000160201
0.0104952
-0.00016315
0.0105181
-0.000160379
0.0105416
-0.000160414
0.0105614
-0.000149833
0.0105866
-0.000154399
0.0106072
-0.000149037
0.0106309
-0.000147728
0.010649
-0.000137592
0.0106686
-0.000125041
0.0106895
-0.000130846
0.0107022
-0.000104073
0.0107264
-0.000120157
0.0107293
-7.40378e-05
0.0107546
-9.16285e-05
0.0107526
-5.39468e-05
0.0107655
-4.18164e-05
0.0107722