/*--------------------------------*- C++ -*----------------------------------*\
| =========                 |                                                 |
| \\      /  F ield         | OpenFOAM: The Open Source CFD Toolbox           |
|  \\    /   O peration     | Version:  2306                                  |
|   \\  /    A nd           | Website:  www.openfoam.com                      |
|    \\/     M anipulation  |                                                 |
\*---------------------------------------------------------------------------*/
FoamFile
{
    version     2.0;
    format      ascii;
    arch        "LSB;label=32;scalar=64";
    class       volVectorField;
    location    "0.05";
    object      U;
}
// * * * * * * * * * * * * * * * * * * * * * * * * * * * * * * * * * * * * * //

dimensions      [0 1 -1 0 0 0 0];

internalField   nonuniform List<vector> 
4400
(
(9.90156 0.0455526 0)
(9.80654 0.0985387 0)
(9.70017 0.120958 0)
(9.5701 0.125562 0)
(9.41926 0.124195 0)
(9.25235 0.123885 0)
(9.08067 0.123756 0)
(8.90995 0.125313 0)
(8.73777 0.127998 0)
(8.56824 0.127052 0)
(8.40206 0.126207 0)
(8.23455 0.126658 0)
(8.06867 0.123287 0)
(7.90558 0.120276 0)
(7.74237 0.120276 0)
(7.58087 0.117069 0)
(7.4223 0.112768 0)
(7.26526 0.113238 0)
(7.10995 0.11191 0)
(6.95587 0.105404 0)
(6.80227 0.103361 0)
(6.65208 0.105777 0)
(6.50796 0.101194 0)
(6.36845 0.0915303 0)
(6.231 0.0884137 0)
(6.09496 0.0906718 0)
(5.96161 0.0871247 0)
(5.83453 0.0768124 0)
(5.71617 0.0682414 0)
(5.60527 0.0643926 0)
(5.49919 0.0608767 0)
(5.39807 0.054188 0)
(5.30485 0.0446453 0)
(5.22247 0.0334304 0)
(5.15273 0.0210835 0)
(5.09683 0.00846825 0)
(5.05557 -0.00285544 0)
(5.02882 -0.0114899 0)
(5.01504 -0.0167786 0)
(5.01144 -0.0187784 0)
(5.01482 -0.0179731 0)
(5.02209 -0.0151316 0)
(5.03083 -0.0111364 0)
(5.039 -0.00696591 0)
(5.04522 -0.00319366 0)
(5.04851 4.9578e-05 0)
(5.04856 0.0030185 0)
(5.0453 0.0054938 0)
(5.03898 0.00725621 0)
(5.02983 0.00860478 0)
(5.01802 0.00976511 0)
(5.00372 0.0109319 0)
(4.9869 0.0122185 0)
(4.96747 0.0136932 0)
(4.9452 0.0154827 0)
(4.91968 0.0175279 0)
(4.89058 0.0200007 0)
(4.85722 0.0228296 0)
(4.81914 0.026099 0)
(4.77552 0.029949 0)
(4.72555 0.0342002 0)
(4.66852 0.039282 0)
(4.60301 0.0448815 0)
(4.52841 0.0513547 0)
(4.44294 0.0587859 0)
(4.34545 0.0669177 0)
(4.23456 0.0765274 0)
(4.10772 0.0868733 0)
(3.96449 0.0987535 0)
(3.80113 0.111925 0)
(3.61699 0.126187 0)
(3.4093 0.142217 0)
(3.17503 0.159088 0)
(2.91444 0.177138 0)
(2.62222 0.195959 0)
(2.30033 0.214411 0)
(1.94605 0.232088 0)
(1.55934 0.24732 0)
(1.14591 0.257131 0)
(0.705131 0.260034 0)
(9.99997 0.0611842 0)
(10.0322 0.137217 0)
(10.0696 0.17356 0)
(10.1049 0.184591 0)
(10.1337 0.185666 0)
(10.1504 0.186388 0)
(10.1591 0.187918 0)
(10.163 0.191382 0)
(10.1596 0.196394 0)
(10.1541 0.19891 0)
(10.1489 0.200461 0)
(10.1378 0.202634 0)
(10.1247 0.201652 0)
(10.1135 0.19992 0)
(10.0969 0.200847 0)
(10.0759 0.199909 0)
(10.0573 0.19682 0)
(10.0366 0.196824 0)
(10.0097 0.197357 0)
(9.9822 0.193997 0)
(9.95576 0.191651 0)
(9.92441 0.192877 0)
(9.88996 0.19049 0)
(9.85973 0.18267 0)
(9.83141 0.177289 0)
(9.79779 0.177727 0)
(9.75912 0.176777 0)
(9.72262 0.168863 0)
(9.69071 0.158108 0)
(9.65911 0.150274 0)
(9.62528 0.144688 0)
(9.59188 0.137199 0)
(9.56225 0.126261 0)
(9.53672 0.113162 0)
(9.51359 0.0988818 0)
(9.49164 0.0831478 0)
(9.47125 0.0658527 0)
(9.45356 0.0480818 0)
(9.43888 0.0316232 0)
(9.42693 0.0176949 0)
(9.41819 0.00686756 0)
(9.41282 -0.000498599 0)
(9.41044 -0.00481666 0)
(9.41022 -0.00630931 0)
(9.411 -0.00539754 0)
(9.412 -0.00276915 0)
(9.41276 0.000825825 0)
(9.41196 0.00480933 0)
(9.40895 0.00896119 0)
(9.40371 0.0130174 0)
(9.39609 0.0170185 0)
(9.3861 0.0208725 0)
(9.37355 0.0247746 0)
(9.35851 0.0289429 0)
(9.34082 0.0332716 0)
(9.32012 0.0383986 0)
(9.29655 0.0438448 0)
(9.26909 0.0503287 0)
(9.238 0.0577234 0)
(9.20226 0.0658311 0)
(9.16105 0.0758998 0)
(9.1148 0.0863151 0)
(9.06048 0.0992852 0)
(8.99999 0.113412 0)
(8.92974 0.129234 0)
(8.84935 0.148522 0)
(8.7599 0.167935 0)
(8.65354 0.192705 0)
(8.53842 0.217949 0)
(8.40233 0.247267 0)
(8.25012 0.280926 0)
(8.08189 0.314367 0)
(7.88098 0.356385 0)
(7.67191 0.396042 0)
(7.4195 0.441943 0)
(7.14989 0.490184 0)
(6.85072 0.534258 0)
(6.50255 0.586065 0)
(6.15224 0.625113 0)
(5.7297 0.664422 0)
(9.99987 0.026743 0)
(10.0171 0.0696094 0)
(10.0428 0.0996882 0)
(10.0746 0.117334 0)
(10.1094 0.126269 0)
(10.1398 0.13169 0)
(10.1672 0.13553 0)
(10.1935 0.139426 0)
(10.2137 0.14517 0)
(10.2329 0.150167 0)
(10.2555 0.153883 0)
(10.2745 0.158654 0)
(10.2922 0.161746 0)
(10.3147 0.162157 0)
(10.3352 0.16432 0)
(10.3514 0.166811 0)
(10.3716 0.166146 0)
(10.393 0.166389 0)
(10.4078 0.169169 0)
(10.4219 0.169452 0)
(10.4406 0.167824 0)
(10.4557 0.168957 0)
(10.4645 0.169793 0)
(10.4775 0.165262 0)
(10.4976 0.160045 0)
(10.5138 0.160249 0)
(10.52 0.1614 0)
(10.5249 0.155904 0)
(10.5364 0.145563 0)
(10.5505 0.13766 0)
(10.5598 0.133393 0)
(10.5646 0.127215 0)
(10.5698 0.11558 0)
(10.5768 0.100321 0)
(10.5822 0.0840049 0)
(10.5831 0.0668851 0)
(10.5806 0.0488032 0)
(10.5764 0.0312085 0)
(10.5713 0.016104 0)
(10.5654 0.0044698 0)
(10.5591 -0.00371035 0)
(10.5527 -0.00869377 0)
(10.5463 -0.0109294 0)
(10.54 -0.0104999 0)
(10.5334 -0.00782404 0)
(10.5264 -0.00345513 0)
(10.5184 0.00181303 0)
(10.5096 0.00741054 0)
(10.5 0.0131446 0)
(10.4894 0.01916 0)
(10.478 0.0249092 0)
(10.4655 0.0308237 0)
(10.4523 0.0368422 0)
(10.438 0.0428901 0)
(10.4224 0.0500248 0)
(10.4058 0.0570093 0)
(10.387 0.0658077 0)
(10.3668 0.0751713 0)
(10.3437 0.0857127 0)
(10.3178 0.0989862 0)
(10.2894 0.111929 0)
(10.2552 0.129458 0)
(10.219 0.147261 0)
(10.1757 0.168011 0)
(10.1266 0.193789 0)
(10.0739 0.218169 0)
(10.0071 0.251953 0)
(9.94013 0.284935 0)
(9.85698 0.323054 0)
(9.76384 0.37039 0)
(9.66713 0.413046 0)
(9.5402 0.47157 0)
(9.41949 0.528646 0)
(9.26708 0.587626 0)
(9.09847 0.665638 0)
(8.92906 0.725352 0)
(8.70373 0.80791 0)
(8.49639 0.88391 0)
(8.23577 0.943834 0)
(7.94912 1.03246 0)
(9.99982 0.018798 0)
(10.0104 0.0525598 0)
(10.0277 0.0804814 0)
(10.0508 0.101057 0)
(10.0791 0.114267 0)
(10.1057 0.122714 0)
(10.1315 0.128034 0)
(10.1587 0.131518 0)
(10.1808 0.13562 0)
(10.201 0.139747 0)
(10.2258 0.142838 0)
(10.2475 0.146846 0)
(10.2664 0.150259 0)
(10.2919 0.151001 0)
(10.3177 0.152407 0)
(10.3375 0.154616 0)
(10.3617 0.15404 0)
(10.3911 0.153209 0)
(10.4134 0.155247 0)
(10.4324 0.156088 0)
(10.4584 0.153945 0)
(10.4838 0.153615 0)
(10.5005 0.154945 0)
(10.5201 0.152384 0)
(10.5512 0.14708 0)
(10.5805 0.145043 0)
(10.5959 0.145374 0)
(10.6075 0.141767 0)
(10.6294 0.133641 0)
(10.6577 0.126263 0)
(10.6788 0.12128 0)
(10.6909 0.114754 0)
(10.7028 0.104151 0)
(10.7188 0.0915778 0)
(10.7342 0.079667 0)
(10.7442 0.0683922 0)
(10.749 0.0566617 0)
(10.7511 0.0446338 0)
(10.7513 0.03351 0)
(10.7488 0.0240212 0)
(10.7436 0.0164187 0)
(10.7369 0.0109089 0)
(10.7296 0.00796153 0)
(10.7221 0.00775379 0)
(10.7141 0.00980058 0)
(10.7055 0.0136782 0)
(10.6965 0.0185347 0)
(10.687 0.0241068 0)
(10.6773 0.0300487 0)
(10.6671 0.0355437 0)
(10.6564 0.0414947 0)
(10.6456 0.0468046 0)
(10.6339 0.0527868 0)
(10.6222 0.0593137 0)
(10.6094 0.0657786 0)
(10.5955 0.0749763 0)
(10.5814 0.0832675 0)
(10.5641 0.0951976 0)
(10.5469 0.107951 0)
(10.5264 0.121805 0)
(10.5025 0.141077 0)
(10.4792 0.158336 0)
(10.4464 0.182841 0)
(10.4163 0.208529 0)
(10.3779 0.235899 0)
(10.3319 0.272949 0)
(10.2911 0.307042 0)
(10.2257 0.350971 0)
(10.1737 0.400833 0)
(10.0986 0.448807 0)
(10.0173 0.513477 0)
(9.94035 0.577087 0)
(9.82352 0.643298 0)
(9.73402 0.732733 0)
(9.59348 0.802422 0)
(9.46614 0.898605 0)
(9.32164 0.995214 0)
(9.13101 1.07078 0)
(8.9851 1.19143 0)
(8.7399 1.25781 0)
(9.99981 0.0133428 0)
(10.0072 0.0383806 0)
(10.0196 0.0602576 0)
(10.0366 0.0777182 0)
(10.0595 0.0901092 0)
(10.0822 0.0984594 0)
(10.1052 0.103927 0)
(10.1313 0.107291 0)
(10.1535 0.110379 0)
(10.1732 0.113547 0)
(10.1979 0.116043 0)
(10.2201 0.119082 0)
(10.2379 0.12235 0)
(10.2624 0.123776 0)
(10.2887 0.124824 0)
(10.3081 0.126734 0)
(10.3314 0.126985 0)
(10.3621 0.126092 0)
(10.3858 0.127162 0)
(10.4037 0.128316 0)
(10.4297 0.127018 0)
(10.4577 0.126182 0)
(10.4749 0.127231 0)
(10.4923 0.126164 0)
(10.5241 0.121839 0)
(10.5574 0.118819 0)
(10.5747 0.118673 0)
(10.5844 0.116889 0)
(10.6056 0.110855 0)
(10.6361 0.103638 0)
(10.6595 0.0981266 0)
(10.672 0.0929863 0)
(10.684 0.0858686 0)
(10.7016 0.0769184 0)
(10.719 0.0676937 0)
(10.7299 0.0584318 0)
(10.7349 0.0484094 0)
(10.7377 0.0376848 0)
(10.7393 0.0272261 0)
(10.7388 0.018264 0)
(10.736 0.0113565 0)
(10.7318 0.00693798 0)
(10.7271 0.00522186 0)
(10.7218 0.00599611 0)
(10.7158 0.0092853 0)
(10.7094 0.0139437 0)
(10.7027 0.0202522 0)
(10.6961 0.0268386 0)
(10.689 0.0336144 0)
(10.6818 0.0407558 0)
(10.6744 0.0467129 0)
(10.666 0.0542732 0)
(10.6582 0.0604348 0)
(10.6482 0.0681882 0)
(10.6387 0.0771665 0)
(10.6281 0.0850832 0)
(10.6145 0.0984893 0)
(10.6036 0.108925 0)
(10.5855 0.125165 0)
(10.5704 0.142873 0)
(10.5519 0.160141 0)
(10.5256 0.18676 0)
(10.5088 0.209518 0)
(10.4715 0.240158 0)
(10.4465 0.276665 0)
(10.4095 0.309846 0)
(10.3608 0.358214 0)
(10.3302 0.406084 0)
(10.2563 0.455895 0)
(10.2186 0.526843 0)
(10.1358 0.584994 0)
(10.0638 0.663911 0)
(9.9944 0.751551 0)
(9.86572 0.826201 0)
(9.80751 0.940612 0)
(9.64783 1.0263 0)
(9.53783 1.13979 0)
(9.41223 1.25592 0)
(9.20269 1.34626 0)
(9.09305 1.48443 0)
(9.9998 0.00961222 0)
(10.0055 0.0279769 0)
(10.0151 0.0445814 0)
(10.0285 0.0586272 0)
(10.0475 0.0694784 0)
(10.067 0.0772645 0)
(10.0876 0.0827048 0)
(10.1122 0.0862695 0)
(10.134 0.0889386 0)
(10.1534 0.0915368 0)
(10.1778 0.0937626 0)
(10.2002 0.096038 0)
(10.2175 0.0987063 0)
(10.2409 0.100457 0)
(10.2672 0.101511 0)
(10.2862 0.103081 0)
(10.3079 0.103758 0)
(10.3387 0.103056 0)
(10.3637 0.103403 0)
(10.3807 0.104533 0)
(10.4053 0.103954 0)
(10.4339 0.102808 0)
(10.4514 0.103239 0)
(10.467 0.103149 0)
(10.4977 0.10022 0)
(10.5325 0.0969165 0)
(10.5503 0.0958284 0)
(10.5575 0.0946909 0)
(10.576 0.0905958 0)
(10.6073 0.0849614 0)
(10.6329 0.0806547 0)
(10.6455 0.0771465 0)
(10.6553 0.0718332 0)
(10.6708 0.0642 0)
(10.6875 0.0559479 0)
(10.6985 0.0483734 0)
(10.7041 0.0412102 0)
(10.7082 0.0341294 0)
(10.7122 0.0276074 0)
(10.7143 0.0221235 0)
(10.7134 0.0183057 0)
(10.7106 0.0158553 0)
(10.7066 0.0153798 0)
(10.7025 0.0168349 0)
(10.6979 0.0198413 0)
(10.6932 0.0250305 0)
(10.6887 0.0301253 0)
(10.6839 0.0369621 0)
(10.68 0.0430176 0)
(10.6751 0.0492236 0)
(10.6705 0.0566862 0)
(10.666 0.0616428 0)
(10.659 0.0707809 0)
(10.6546 0.0770731 0)
(10.6457 0.0862842 0)
(10.6378 0.0983608 0)
(10.6306 0.106873 0)
(10.6148 0.125371 0)
(10.6098 0.138396 0)
(10.5888 0.158077 0)
(10.5764 0.182976 0)
(10.5614 0.203046 0)
(10.5292 0.236822 0)
(10.524 0.268739 0)
(10.4755 0.302561 0)
(10.4637 0.352509 0)
(10.4186 0.394581 0)
(10.3743 0.449936 0)
(10.351 0.517413 0)
(10.2606 0.573973 0)
(10.2497 0.662432 0)
(10.1415 0.736893 0)
(10.0858 0.831276 0)
(10.0139 0.937352 0)
(9.87661 1.02826 0)
(9.82536 1.16679 0)
(9.65431 1.26368 0)
(9.55278 1.39891 0)
(9.39403 1.536 0)
(9.21587 1.63385 0)
(9.9998 0.00684706 0)
(10.0045 0.0201047 0)
(10.0125 0.0323134 0)
(10.0237 0.043024 0)
(10.0402 0.0517623 0)
(10.0574 0.0583854 0)
(10.0759 0.0632667 0)
(10.0992 0.0665985 0)
(10.1202 0.0688933 0)
(10.1394 0.0709811 0)
(10.1635 0.0727796 0)
(10.186 0.0744 0)
(10.2032 0.0764205 0)
(10.2259 0.0781047 0)
(10.2519 0.0789981 0)
(10.2706 0.0800707 0)
(10.2914 0.0810061 0)
(10.3219 0.0807937 0)
(10.3474 0.0805521 0)
(10.3641 0.0810717 0)
(10.3876 0.0809873 0)
(10.4165 0.0802727 0)
(10.4347 0.0804257 0)
(10.4488 0.0804561 0)
(10.4775 0.078308 0)
(10.5127 0.0753152 0)
(10.5318 0.0740797 0)
(10.5383 0.0737885 0)
(10.5551 0.0716265 0)
(10.5859 0.0675086 0)
(10.612 0.0634823 0)
(10.6237 0.0599571 0)
(10.6314 0.0555607 0)
(10.6458 0.0498883 0)
(10.6631 0.0443662 0)
(10.6754 0.03964 0)
(10.6816 0.0353611 0)
(10.6862 0.0307188 0)
(10.6905 0.0258203 0)
(10.6932 0.021497 0)
(10.6932 0.0178395 0)
(10.6914 0.0161638 0)
(10.6892 0.0156183 0)
(10.6863 0.0173734 0)
(10.6837 0.0208425 0)
(10.6806 0.0249063 0)
(10.6777 0.0317152 0)
(10.6759 0.0364935 0)
(10.6725 0.0445009 0)
(10.6717 0.0506632 0)
(10.6685 0.0569928 0)
(10.6655 0.0667803 0)
(10.6646 0.0711472 0)
(10.6564 0.0837642 0)
(10.6569 0.0917506 0)
(10.6472 0.102392 0)
(10.6404 0.120259 0)
(10.6384 0.129309 0)
(10.6167 0.153162 0)
(10.6221 0.171931 0)
(10.5942 0.192648 0)
(10.5885 0.227697 0)
(10.5744 0.251096 0)
(10.5392 0.291818 0)
(10.5464 0.33365 0)
(10.4833 0.374513 0)
(10.4937 0.434681 0)
(10.4315 0.487489 0)
(10.4008 0.558202 0)
(10.3777 0.633005 0)
(10.2833 0.710329 0)
(10.2789 0.814005 0)
(10.1671 0.90151 0)
(10.1176 1.01979 0)
(10.0263 1.14095 0)
(9.91061 1.26032 0)
(9.83039 1.398 0)
(9.66149 1.54661 0)
(9.54798 1.67768 0)
(9.37198 1.82675 0)
(9.9998 0.00462125 0)
(10.004 0.013628 0)
(10.011 0.0220236 0)
(10.0208 0.0295383 0)
(10.0357 0.0358526 0)
(10.0513 0.0408171 0)
(10.0684 0.0445838 0)
(10.0905 0.0472353 0)
(10.1109 0.0490646 0)
(10.1297 0.0506008 0)
(10.1536 0.0518851 0)
(10.1761 0.0529899 0)
(10.1933 0.0543952 0)
(10.2156 0.0557153 0)
(10.2411 0.056379 0)
(10.26 0.0570895 0)
(10.2803 0.0579676 0)
(10.3099 0.0579463 0)
(10.3355 0.0574951 0)
(10.3526 0.0577735 0)
(10.3758 0.058093 0)
(10.4044 0.0576677 0)
(10.4226 0.0573201 0)
(10.4359 0.057217 0)
(10.4635 0.0562092 0)
(10.4992 0.0544744 0)
(10.5195 0.0535271 0)
(10.5254 0.0532265 0)
(10.5401 0.0516609 0)
(10.5697 0.0484108 0)
(10.5962 0.0451984 0)
(10.6084 0.0429293 0)
(10.6158 0.0407478 0)
(10.6297 0.0378181 0)
(10.6471 0.0343058 0)
(10.6594 0.0311934 0)
(10.6656 0.0278747 0)
(10.6698 0.0247451 0)
(10.6748 0.0214484 0)
(10.6785 0.018775 0)
(10.68 0.0176953 0)
(10.6795 0.016716 0)
(10.678 0.018618 0)
(10.677 0.0199787 0)
(10.6747 0.0239272 0)
(10.6737 0.0289086 0)
(10.6723 0.0326252 0)
(10.6705 0.0413928 0)
(10.672 0.044377 0)
(10.6685 0.0539177 0)
(10.671 0.0603 0)
(10.6692 0.0657088 0)
(10.6652 0.0796044 0)
(10.6713 0.0821019 0)
(10.6566 0.09885 0)
(10.6668 0.10955 0)
(10.6522 0.120091 0)
(10.6489 0.145378 0)
(10.6519 0.155025 0)
(10.6232 0.183427 0)
(10.6439 0.20909 0)
(10.601 0.232453 0)
(10.6161 0.274596 0)
(10.5887 0.305303 0)
(10.5637 0.354231 0)
(10.578 0.400377 0)
(10.5039 0.45911 0)
(10.5343 0.521778 0)
(10.4615 0.592768 0)
(10.4454 0.673773 0)
(10.4086 0.765934 0)
(10.34 0.863168 0)
(10.3133 0.968824 0)
(10.2144 1.1071 0)
(10.1621 1.21435 0)
(10.0636 1.37077 0)
(9.94934 1.52466 0)
(9.8342 1.66655 0)
(9.70711 1.84149 0)
(9.50152 2.01315 0)
(9.9998 0.00268092 0)
(10.0037 0.00792499 0)
(10.0101 0.0128483 0)
(10.0192 0.0172922 0)
(10.0331 0.0211005 0)
(10.0477 0.0241505 0)
(10.0639 0.0265014 0)
(10.0851 0.0282237 0)
(10.1051 0.0294005 0)
(10.1236 0.0303236 0)
(10.1472 0.0311397 0)
(10.1698 0.0318231 0)
(10.1871 0.0325989 0)
(10.2091 0.0334078 0)
(10.2344 0.0339429 0)
(10.2532 0.034405 0)
(10.2732 0.0348547 0)
(10.3023 0.034815 0)
(10.3281 0.0346727 0)
(10.3455 0.0350441 0)
(10.3682 0.0353158 0)
(10.3963 0.0348458 0)
(10.4148 0.0345006 0)
(10.4283 0.0347464 0)
(10.4553 0.0345765 0)
(10.4905 0.0335135 0)
(10.5109 0.0325521 0)
(10.5166 0.0322965 0)
(10.5304 0.0316851 0)
(10.5598 0.0303219 0)
(10.587 0.0287493 0)
(10.5997 0.02776 0)
(10.6066 0.0266954 0)
(10.6193 0.0249805 0)
(10.6363 0.0230796 0)
(10.6488 0.021073 0)
(10.6553 0.0200216 0)
(10.6604 0.0184475 0)
(10.6657 0.017822 0)
(10.6708 0.0170472 0)
(10.6724 0.016769 0)
(10.6729 0.0182705 0)
(10.6725 0.018332 0)
(10.671 0.0225914 0)
(10.6719 0.0242144 0)
(10.6694 0.0291142 0)
(10.6705 0.0351336 0)
(10.6712 0.0372498 0)
(10.6689 0.0485354 0)
(10.6759 0.0496792 0)
(10.6691 0.0602322 0)
(10.6769 0.0695041 0)
(10.6753 0.0717789 0)
(10.6695 0.0926549 0)
(10.6846 0.093368 0)
(10.6599 0.113151 0)
(10.6846 0.129601 0)
(10.6594 0.13874 0)
(10.6675 0.171617 0)
(10.6673 0.182907 0)
(10.6406 0.218388 0)
(10.6704 0.244042 0)
(10.6193 0.280774 0)
(10.6504 0.323664 0)
(10.6146 0.360213 0)
(10.6062 0.427781 0)
(10.6062 0.469643 0)
(10.5645 0.550439 0)
(10.5665 0.617383 0)
(10.5249 0.711286 0)
(10.5007 0.798041 0)
(10.4678 0.909321 0)
(10.4097 1.03943 0)
(10.3631 1.14732 0)
(10.3106 1.3133 0)
(10.1874 1.46271 0)
(10.1498 1.62349 0)
(9.98327 1.80808 0)
(9.87389 1.99861 0)
(9.72138 2.17168 0)
(9.9998 0.000884035 0)
(10.0035 0.00261713 0)
(10.0097 0.0042479 0)
(10.0184 0.00572566 0)
(10.0319 0.00701027 0)
(10.046 0.00804325 0)
(10.0618 0.00885253 0)
(10.0826 0.00946985 0)
(10.1022 0.00988365 0)
(10.1206 0.0101956 0)
(10.1442 0.010513 0)
(10.1667 0.0107834 0)
(10.184 0.0110313 0)
(10.206 0.0113048 0)
(10.2312 0.0115719 0)
(10.2499 0.0117872 0)
(10.2696 0.0119444 0)
(10.2987 0.0119438 0)
(10.3247 0.0120164 0)
(10.3421 0.0122532 0)
(10.3644 0.0124077 0)
(10.3924 0.0122812 0)
(10.4113 0.0123069 0)
(10.4247 0.0125947 0)
(10.4511 0.0126155 0)
(10.4859 0.0122486 0)
(10.5069 0.011982 0)
(10.5131 0.012243 0)
(10.5266 0.0125984 0)
(10.5554 0.012535 0)
(10.5824 0.0124239 0)
(10.5951 0.0120271 0)
(10.6017 0.0120524 0)
(10.6146 0.0116433 0)
(10.6316 0.0115367 0)
(10.6447 0.0120959 0)
(10.6516 0.0118951 0)
(10.6565 0.0136664 0)
(10.6625 0.0128128 0)
(10.6668 0.0149184 0)
(10.6702 0.0152194 0)
(10.6702 0.0161701 0)
(10.6703 0.020514 0)
(10.6716 0.0191874 0)
(10.6688 0.027313 0)
(10.6734 0.0270231 0)
(10.6693 0.033046 0)
(10.6736 0.0409402 0)
(10.6765 0.0393699 0)
(10.6713 0.056055 0)
(10.6873 0.0538024 0)
(10.6721 0.0665582 0)
(10.6905 0.0795431 0)
(10.6832 0.0782273 0)
(10.6816 0.107318 0)
(10.6994 0.104723 0)
(10.6711 0.131843 0)
(10.7066 0.146655 0)
(10.6709 0.163772 0)
(10.6966 0.197514 0)
(10.6841 0.210658 0)
(10.6728 0.260579 0)
(10.6974 0.275864 0)
(10.6585 0.336561 0)
(10.6834 0.368455 0)
(10.666 0.432718 0)
(10.6511 0.486826 0)
(10.6629 0.558268 0)
(10.6293 0.647564 0)
(10.6258 0.711659 0)
(10.6164 0.847487 0)
(10.5563 0.932255 0)
(10.577 1.07837 0)
(10.4797 1.20708 0)
(10.4729 1.38306 0)
(10.3753 1.52946 0)
(10.2976 1.74382 0)
(10.2187 1.92284 0)
(10.0393 2.12928 0)
(9.94082 2.39457 0)
(9.9998 -0.000868482 0)
(10.0035 -0.00257083 0)
(10.0097 -0.0041707 0)
(10.0184 -0.0056166 0)
(10.0319 -0.00686752 0)
(10.046 -0.00786487 0)
(10.0618 -0.00863431 0)
(10.0826 -0.00920899 0)
(10.1023 -0.00957273 0)
(10.1207 -0.00983172 0)
(10.1443 -0.0100833 0)
(10.1667 -0.0102874 0)
(10.184 -0.0104461 0)
(10.206 -0.0106369 0)
(10.2313 -0.0107819 0)
(10.2499 -0.0108949 0)
(10.2697 -0.0108822 0)
(10.2988 -0.0107556 0)
(10.3248 -0.0105978 0)
(10.3422 -0.0106722 0)
(10.3645 -0.0105269 0)
(10.3925 -0.0101829 0)
(10.4114 -0.00983116 0)
(10.4249 -0.00979976 0)
(10.4513 -0.00937302 0)
(10.4862 -0.00854515 0)
(10.5072 -0.00774759 0)
(10.5134 -0.00733834 0)
(10.527 -0.00703852 0)
(10.5559 -0.00608233 0)
(10.5828 -0.00512732 0)
(10.5957 -0.00356641 0)
(10.6025 -0.00250606 0)
(10.615 -0.000553297 0)
(10.6328 0.000901149 0)
(10.6454 0.00246056 0)
(10.653 0.00460199 0)
(10.6578 0.00545267 0)
(10.6633 0.00935022 0)
(10.6696 0.00981321 0)
(10.6704 0.013941 0)
(10.6739 0.0160964 0)
(10.6726 0.017229 0)
(10.6726 0.024154 0)
(10.6773 0.0211421 0)
(10.6694 0.0310715 0)
(10.6829 0.0307877 0)
(10.6716 0.0343532 0)
(10.684 0.0471595 0)
(10.685 0.0402252 0)
(10.6791 0.0619581 0)
(10.703 0.0595516 0)
(10.6779 0.0709463 0)
(10.7115 0.0902545 0)
(10.6893 0.0867289 0)
(10.7066 0.119759 0)
(10.7088 0.11856 0)
(10.6982 0.152388 0)
(10.7222 0.160296 0)
(10.7026 0.195306 0)
(10.7183 0.218372 0)
(10.7191 0.245686 0)
(10.7145 0.29569 0)
(10.7213 0.318336 0)
(10.731 0.3859 0)
(10.7085 0.420125 0)
(10.7487 0.503463 0)
(10.6991 0.553777 0)
(10.7537 0.6537 0)
(10.6986 0.728198 0)
(10.7271 0.857614 0)
(10.7085 0.947239 0)
(10.6695 1.11386 0)
(10.694 1.24348 0)
(10.5829 1.41959 0)
(10.6165 1.63553 0)
(10.471 1.77032 0)
(10.4457 2.09474 0)
(10.2651 2.24286 0)
(10.18 2.55207 0)
(9.9998 -0.00266565 0)
(10.0037 -0.00787959 0)
(10.0101 -0.0127725 0)
(10.0192 -0.0171853 0)
(10.0331 -0.0209607 0)
(10.0477 -0.023976 0)
(10.0639 -0.0262878 0)
(10.0852 -0.0279689 0)
(10.1051 -0.0290961 0)
(10.1236 -0.0299684 0)
(10.1473 -0.0307187 0)
(10.1698 -0.0313395 0)
(10.1872 -0.0320242 0)
(10.2092 -0.0327579 0)
(10.2345 -0.0331642 0)
(10.2533 -0.0335395 0)
(10.2734 -0.0338044 0)
(10.3026 -0.033665 0)
(10.3284 -0.0332675 0)
(10.3458 -0.0335136 0)
(10.3685 -0.0334524 0)
(10.3967 -0.032801 0)
(10.4153 -0.0320685 0)
(10.4288 -0.0319889 0)
(10.456 -0.0314327 0)
(10.4912 -0.0297983 0)
(10.5118 -0.0284856 0)
(10.5175 -0.027375 0)
(10.5316 -0.0262995 0)
(10.561 -0.0240292 0)
(10.5885 -0.0213773 0)
(10.6014 -0.0199305 0)
(10.6084 -0.0165322 0)
(10.6217 -0.015079 0)
(10.6384 -0.00966922 0)
(10.652 -0.00758978 0)
(10.6584 -0.00380368 0)
(10.6645 0.00102547 0)
(10.6706 0.000851804 0)
(10.6746 0.0107948 0)
(10.68 0.00746951 0)
(10.6771 0.0171902 0)
(10.6818 0.0181117 0)
(10.6795 0.0176445 0)
(10.6791 0.0309118 0)
(10.6873 0.0185313 0)
(10.6742 0.0382261 0)
(10.6973 0.030292 0)
(10.6769 0.037348 0)
(10.7009 0.052342 0)
(10.6929 0.039882 0)
(10.6969 0.0725704 0)
(10.7146 0.0576567 0)
(10.6957 0.0879746 0)
(10.7287 0.0891087 0)
(10.7052 0.104909 0)
(10.7329 0.131457 0)
(10.7229 0.127629 0)
(10.7343 0.180686 0)
(10.738 0.169947 0)
(10.7487 0.228066 0)
(10.7388 0.235599 0)
(10.7792 0.292185 0)
(10.7366 0.312521 0)
(10.8059 0.378147 0)
(10.7571 0.423239 0)
(10.8037 0.482678 0)
(10.8142 0.561319 0)
(10.7836 0.639771 0)
(10.8613 0.73527 0)
(10.7906 0.834056 0)
(10.877 0.988817 0)
(10.7942 1.07218 0)
(10.8665 1.31962 0)
(10.7823 1.41001 0)
(10.8057 1.68631 0)
(10.7164 1.87674 0)
(10.6626 2.14339 0)
(10.5673 2.41954 0)
(10.4078 2.6635 0)
(9.9998 -0.0046067 0)
(10.004 -0.0135847 0)
(10.011 -0.0219514 0)
(10.0208 -0.0294365 0)
(10.0357 -0.0357194 0)
(10.0513 -0.0406508 0)
(10.0685 -0.0443802 0)
(10.0905 -0.0469923 0)
(10.111 -0.0487739 0)
(10.1298 -0.0502618 0)
(10.1537 -0.0514824 0)
(10.1762 -0.0525284 0)
(10.1935 -0.0538442 0)
(10.2158 -0.0550946 0)
(10.2414 -0.0556305 0)
(10.2602 -0.0562634 0)
(10.2806 -0.0569544 0)
(10.3103 -0.0568531 0)
(10.336 -0.0561305 0)
(10.3531 -0.0563286 0)
(10.3764 -0.0562685 0)
(10.4051 -0.0557554 0)
(10.4234 -0.0549034 0)
(10.4367 -0.0546719 0)
(10.4647 -0.0530417 0)
(10.5003 -0.0510787 0)
(10.5209 -0.049403 0)
(10.527 -0.0486762 0)
(10.5417 -0.0463253 0)
(10.572 -0.0423324 0)
(10.5982 -0.0383585 0)
(10.6116 -0.0347892 0)
(10.6187 -0.031968 0)
(10.6333 -0.0269764 0)
(10.6518 -0.0228208 0)
(10.6628 -0.0171164 0)
(10.6728 -0.0121484 0)
(10.6736 -0.00733552 0)
(10.6836 0.000384086 0)
(10.6869 0.00201437 0)
(10.6874 0.0111517 0)
(10.6958 0.0121496 0)
(10.6833 0.0159832 0)
(10.6997 0.0240718 0)
(10.6848 0.0154344 0)
(10.6954 0.0337708 0)
(10.6968 0.0192763 0)
(10.6873 0.0351458 0)
(10.7129 0.0358026 0)
(10.6871 0.0331801 0)
(10.7226 0.056528 0)
(10.6998 0.043977 0)
(10.7249 0.0724232 0)
(10.7192 0.0672866 0)
(10.7301 0.0940968 0)
(10.7303 0.0930274 0)
(10.7518 0.1262 0)
(10.7294 0.12731 0)
(10.7777 0.162483 0)
(10.7481 0.176429 0)
(10.7742 0.206399 0)
(10.8035 0.242117 0)
(10.7595 0.261121 0)
(10.8563 0.326693 0)
(10.7727 0.342379 0)
(10.8932 0.426598 0)
(10.8097 0.449182 0)
(10.9229 0.575311 0)
(10.8669 0.579987 0)
(10.95 0.759682 0)
(10.9336 0.792247 0)
(10.9786 0.971822 0)
(10.9878 1.09744 0)
(11.0087 1.25596 0)
(11.0213 1.48321 0)
(10.9873 1.65993 0)
(11.0164 1.96879 0)
(10.8874 2.18374 0)
(10.9262 2.54474 0)
(10.6645 2.82665 0)
(9.9998 -0.00683353 0)
(10.0046 -0.0200646 0)
(10.0125 -0.0322463 0)
(10.0237 -0.0429296 0)
(10.0402 -0.0516385 0)
(10.0574 -0.058231 0)
(10.076 -0.0630771 0)
(10.0992 -0.066373 0)
(10.1203 -0.0686217 0)
(10.1395 -0.0706674 0)
(10.1637 -0.0724004 0)
(10.1862 -0.0739755 0)
(10.2034 -0.0758956 0)
(10.2262 -0.0775402 0)
(10.2522 -0.0782727 0)
(10.271 -0.0793339 0)
(10.2918 -0.0800018 0)
(10.3224 -0.0798452 0)
(10.348 -0.0791665 0)
(10.3648 -0.0798464 0)
(10.3884 -0.0791127 0)
(10.4174 -0.0786451 0)
(10.4358 -0.0779855 0)
(10.4501 -0.0781674 0)
(10.4789 -0.0753121 0)
(10.5143 -0.0719597 0)
(10.5338 -0.0705641 0)
(10.5404 -0.0688929 0)
(10.5577 -0.0673495 0)
(10.5887 -0.0610364 0)
(10.6154 -0.0573588 0)
(10.6274 -0.0526767 0)
(10.6357 -0.0455347 0)
(10.6509 -0.0429026 0)
(10.6683 -0.0288485 0)
(10.6829 -0.0320127 0)
(10.6877 -0.0157635 0)
(10.6968 -0.016775 0)
(10.6974 -0.00673417 0)
(10.7062 0.00706747 0)
(10.7053 -0.00226819 0)
(10.7055 0.0271894 0)
(10.7102 0.00458688 0)
(10.6993 0.0312681 0)
(10.7162 0.0210332 0)
(10.6946 0.0200561 0)
(10.7206 0.0409423 0)
(10.6977 0.0110217 0)
(10.723 0.0541592 0)
(10.709 0.0166044 0)
(10.7244 0.0606145 0)
(10.7267 0.0390904 0)
(10.724 0.0599187 0)
(10.7504 0.0807854 0)
(10.7243 0.0586337 0)
(10.7756 0.121303 0)
(10.73 0.0868863 0)
(10.7994 0.141484 0)
(10.7442 0.138863 0)
(10.8252 0.177373 0)
(10.7617 0.180412 0)
(10.8589 0.242861 0)
(10.7938 0.235385 0)
(10.8767 0.316062 0)
(10.8695 0.314668 0)
(10.878 0.413604 0)
(10.9562 0.427044 0)
(10.9213 0.518964 0)
(11.0178 0.609631 0)
(10.9968 0.646803 0)
(11.1041 0.842548 0)
(11.0604 0.863123 0)
(11.205 1.11266 0)
(11.1444 1.19661 0)
(11.2768 1.47798 0)
(11.1977 1.65481 0)
(11.3232 1.96262 0)
(11.2022 2.2567 0)
(11.214 2.61245 0)
(11.1142 3.00527 0)
(9.9998 -0.00960009 0)
(10.0055 -0.0279408 0)
(10.0151 -0.0445211 0)
(10.0285 -0.0585421 0)
(10.0475 -0.0693668 0)
(10.0671 -0.077125 0)
(10.0876 -0.0825337 0)
(10.1123 -0.0860653 0)
(10.1341 -0.0886932 0)
(10.1535 -0.0912516 0)
(10.178 -0.0934201 0)
(10.2005 -0.0956496 0)
(10.2178 -0.0982331 0)
(10.2413 -0.0999357 0)
(10.2676 -0.100861 0)
(10.2867 -0.102392 0)
(10.3084 -0.102862 0)
(10.3395 -0.102159 0)
(10.3643 -0.102172 0)
(10.3817 -0.103362 0)
(10.4063 -0.102281 0)
(10.4351 -0.101266 0)
(10.4528 -0.10102 0)
(10.4684 -0.101052 0)
(10.4998 -0.0973773 0)
(10.5342 -0.0939851 0)
(10.5532 -0.092306 0)
(10.5598 -0.0905268 0)
(10.5793 -0.0863112 0)
(10.6112 -0.0791479 0)
(10.6359 -0.0753074 0)
(10.6522 -0.0693851 0)
(10.6581 -0.0646635 0)
(10.6796 -0.0545579 0)
(10.6927 -0.0453748 0)
(10.7063 -0.0375889 0)
(10.7173 -0.0251047 0)
(10.7111 -0.0231971 0)
(10.7378 -0.00396384 0)
(10.7135 -0.00977578 0)
(10.7454 0.0130183 0)
(10.7168 0.00467661 0)
(10.7343 0.0182147 0)
(10.7305 0.021979 0)
(10.7137 0.0120956 0)
(10.7472 0.0352159 0)
(10.6997 0.00967049 0)
(10.7539 0.0352829 0)
(10.7061 0.0233758 0)
(10.7466 0.0302689 0)
(10.7284 0.0403181 0)
(10.7415 0.0427825 0)
(10.74 0.0457532 0)
(10.7673 0.0765126 0)
(10.7267 0.0523132 0)
(10.8071 0.110639 0)
(10.7399 0.0783607 0)
(10.8002 0.133002 0)
(10.8153 0.131777 0)
(10.7675 0.148305 0)
(10.887 0.196628 0)
(10.7886 0.189408 0)
(10.9147 0.253966 0)
(10.853 0.256416 0)
(10.9504 0.337567 0)
(10.9185 0.323792 0)
(11.0156 0.462139 0)
(10.9944 0.429745 0)
(11.1047 0.585904 0)
(11.0888 0.619808 0)
(11.2129 0.744576 0)
(11.2218 0.860821 0)
(11.3263 0.997112 0)
(11.3833 1.19717 0)
(11.4402 1.36353 0)
(11.5524 1.65154 0)
(11.5162 1.91067 0)
(11.6649 2.30641 0)
(11.4964 2.61505 0)
(11.6288 3.16059 0)
(9.99981 -0.0133324 0)
(10.0072 -0.0383498 0)
(10.0196 -0.0602055 0)
(10.0367 -0.0776453 0)
(10.0595 -0.0900126 0)
(10.0823 -0.0983392 0)
(10.1053 -0.103777 0)
(10.1314 -0.107114 0)
(10.1536 -0.110163 0)
(10.1734 -0.113301 0)
(10.1981 -0.115735 0)
(10.2204 -0.118753 0)
(10.2383 -0.12191 0)
(10.2628 -0.123356 0)
(10.2891 -0.124182 0)
(10.3087 -0.12623 0)
(10.3319 -0.126021 0)
(10.363 -0.125547 0)
(10.3866 -0.125687 0)
(10.4048 -0.127802 0)
(10.4308 -0.124796 0)
(10.4592 -0.125734 0)
(10.4764 -0.124098 0)
(10.4943 -0.125557 0)
(10.5262 -0.117994 0)
(10.5599 -0.11724 0)
(10.5775 -0.114933 0)
(10.5877 -0.112853 0)
(10.6091 -0.108322 0)
(10.6408 -0.0959528 0)
(10.6637 -0.0963989 0)
(10.6787 -0.0831932 0)
(10.6891 -0.0804857 0)
(10.7103 -0.0708475 0)
(10.7265 -0.0504789 0)
(10.7397 -0.0623724 0)
(10.7471 -0.0145942 0)
(10.7476 -0.0487891 0)
(10.7569 0.0146745 0)
(10.752 -0.0190932 0)
(10.7582 0.0170821 0)
(10.7558 0.0244717 0)
(10.7462 -0.00215024 0)
(10.766 0.0635778 0)
(10.7268 -0.020624 0)
(10.779 0.0776716 0)
(10.7123 -0.0178023 0)
(10.7825 0.0590777 0)
(10.7212 0.0180407 0)
(10.7608 0.0162751 0)
(10.7625 0.0762536 0)
(10.7212 -0.0166271 0)
(10.8117 0.105013 0)
(10.707 0.0135341 0)
(10.8254 0.0804872 0)
(10.7394 0.0798572 0)
(10.8205 0.0789669 0)
(10.7764 0.106529 0)
(10.8451 0.131035 0)
(10.8 0.115426 0)
(10.8789 0.196775 0)
(10.8566 0.136573 0)
(10.9008 0.267108 0)
(10.9288 0.200295 0)
(10.9522 0.295909 0)
(11.0085 0.347398 0)
(11.021 0.319796 0)
(11.1178 0.486828 0)
(11.1066 0.453486 0)
(11.2656 0.598906 0)
(11.2369 0.645231 0)
(11.4187 0.811119 0)
(11.4225 0.879126 0)
(11.6376 1.10684 0)
(11.6161 1.26941 0)
(11.8488 1.56144 0)
(11.8731 1.82658 0)
(11.9873 2.2451 0)
(12.056 2.68078 0)
(11.9594 3.16513 0)
(9.99982 -0.0187896 0)
(10.0105 -0.052535 0)
(10.0277 -0.0804398 0)
(10.0508 -0.100998 0)
(10.0791 -0.114189 0)
(10.1058 -0.122616 0)
(10.1316 -0.127914 0)
(10.1588 -0.131372 0)
(10.1809 -0.135446 0)
(10.2012 -0.139539 0)
(10.226 -0.142592 0)
(10.2478 -0.146559 0)
(10.2667 -0.149916 0)
(10.2924 -0.150612 0)
(10.3181 -0.151929 0)
(10.3383 -0.154098 0)
(10.3623 -0.15337 0)
(10.3923 -0.152538 0)
(10.4141 -0.15429 0)
(10.4341 -0.155245 0)
(10.4593 -0.152583 0)
(10.486 -0.152553 0)
(10.502 -0.153076 0)
(10.5225 -0.150911 0)
(10.5539 -0.144816 0)
(10.5827 -0.142553 0)
(10.6006 -0.143334 0)
(10.6093 -0.136894 0)
(10.6362 -0.133247 0)
(10.6604 -0.116855 0)
(10.6861 -0.124157 0)
(10.6976 -0.0990959 0)
(10.7076 -0.110255 0)
(10.7331 -0.0711798 0)
(10.7357 -0.0840153 0)
(10.7663 -0.0508721 0)
(10.7518 -0.0475088 0)
(10.775 -0.0421166 0)
(10.7663 0.00121588 0)
(10.7635 -0.0410259 0)
(10.7794 0.0430126 0)
(10.74 -0.0324027 0)
(10.7883 0.0500295 0)
(10.7238 0.00206646 0)
(10.7822 0.0155414 0)
(10.7304 0.0528572 0)
(10.7528 -0.0263514 0)
(10.755 0.0805615 0)
(10.7296 -0.0248057 0)
(10.7543 0.0532464 0)
(10.7566 0.0316719 0)
(10.7058 0.00670985 0)
(10.8152 0.0844517 0)
(10.6898 0.00446579 0)
(10.8034 0.0902414 0)
(10.7806 0.0520337 0)
(10.7369 0.0749425 0)
(10.8679 0.108771 0)
(10.7483 0.0764376 0)
(10.8872 0.156291 0)
(10.8103 0.100179 0)
(10.9232 0.19754 0)
(10.873 0.15416 0)
(10.9657 0.243033 0)
(10.975 0.203957 0)
(11.0316 0.328664 0)
(11.0608 0.278014 0)
(11.1678 0.395776 0)
(11.1845 0.423768 0)