/*--------------------------------*- C++ -*----------------------------------*\
| =========                 |                                                 |
| \\      /  F ield         | OpenFOAM: The Open Source CFD Toolbox           |
|  \\    /   O peration     | Version:  2306                                  |
|   \\  /    A nd           | Website:  www.openfoam.com                      |
|    \\/     M anipulation  |                                                 |
\*---------------------------------------------------------------------------*/
FoamFile
{
    version     2.0;
    format      ascii;
    arch        "LSB;label=32;scalar=64";
    class       volScalarField;
    location    "0.15";
    object      p;
}
// * * * * * * * * * * * * * * * * * * * * * * * * * * * * * * * * * * * * * //

dimensions      [0 2 -2 0 0 0 0];

internalField   nonuniform List<scalar> 
17600
(
392.222
390.179
388.401
387.171
386.407
385.901
385.483
385.076
384.658
384.235
383.814
383.402
382.998
382.601
382.21
381.823
381.442
381.069
380.708
380.362
380.033
379.726
379.442
379.183
378.949
378.742
378.559
378.4
378.262
378.144
378.041
377.951
377.872
377.801
377.736
377.675
377.616
377.559
377.501
377.443
377.384
377.323
377.261
377.197
377.131
377.064
376.996
376.926
376.856
376.784
376.712
376.64
376.567
376.495
376.423
376.35
376.279
376.208
376.137
376.067
375.998
375.93
375.863
375.797
375.732
375.668
375.605
375.544
375.484
375.425
375.368
375.312
375.257
375.204
375.153
375.103
375.055
375.009
374.965
374.922
374.882
374.843
374.807
374.773
374.741
374.711
374.684
374.66
374.638
374.619
374.603
374.59
374.579
374.573
374.569
374.569
374.573
374.581
374.592
374.608
374.628
374.652
374.681
374.715
374.753
374.797
374.845
374.899
374.959
375.024
375.095
375.172
375.255
375.344
375.439
375.54
375.647
375.761
375.88
376.006
376.138
376.275
376.418
376.566
376.719
376.877
377.038
377.203
377.371
377.542
377.714
377.887
378.059
378.231
378.401
378.569
378.732
378.892
379.046
379.194
379.336
379.471
379.598
379.717
379.827
379.929
380.022
380.107
380.183
380.252
380.312
380.365
380.411
380.45
380.484
380.512
380.535
380.552
380.563
380.566
389.493
388.723
387.797
386.933
386.242
385.719
385.299
384.917
384.537
384.148
383.754
383.36
382.97
382.585
382.206
381.832
381.464
381.104
380.755
380.42
380.102
379.802
379.524
379.269
379.037
378.829
378.645
378.483
378.341
378.217
378.109
378.014
377.93
377.854
377.784
377.718
377.654
377.592
377.531
377.47
377.408
377.345
377.28
377.215
377.148
377.079
377.01
376.939
376.868
376.796
376.723
376.65
376.577
376.504
376.432
376.359
376.287
376.216
376.145
376.075
376.006
375.937
375.87
375.804
375.739
375.675
375.612
375.55
375.49
375.431
375.374
375.318
375.263
375.21
375.159
375.109
375.061
375.015
374.97
374.928
374.887
374.849
374.812
374.778
374.746
374.716
374.689
374.665
374.643
374.624
374.608
374.595
374.585
374.578
374.575
374.575
374.579
374.587
374.598
374.614
374.634
374.659
374.688
374.722
374.76
374.804
374.853
374.908
374.968
375.034
375.105
375.183
375.266
375.356
375.451
375.553
375.662
375.776
375.897
376.023
376.156
376.294
376.438
376.588
376.742
376.901
377.063
377.23
377.399
377.57
377.743
377.916
378.089
378.261
378.431
378.597
378.76
378.918
379.071
379.217
379.357
379.49
379.616
379.734
379.843
379.944
380.037
380.12
380.195
380.262
380.321
380.372
380.416
380.454
380.485
380.512
380.534
380.551
380.563
380.568
388.189
387.839
387.31
386.698
386.106
385.592
385.159
384.779
384.418
384.057
383.689
383.317
382.945
382.577
382.215
381.859
381.51
381.169
380.839
380.521
380.217
379.93
379.661
379.411
379.182
378.974
378.787
378.619
378.47
378.337
378.219
378.113
378.018
377.932
377.852
377.777
377.705
377.636
377.568
377.501
377.433
377.366
377.297
377.229
377.159
377.089
377.018
376.946
376.874
376.801
376.728
376.655
376.582
376.508
376.435
376.363
376.291
376.219
376.148
376.078
376.009
375.94
375.873
375.806
375.741
375.677
375.614
375.552
375.491
375.432
375.374
375.318
375.263
375.21
375.158
375.108
375.06
375.013
374.968
374.925
374.884
374.845
374.808
374.773
374.741
374.711
374.683
374.658
374.636
374.616
374.599
374.586
374.575
374.568
374.563
374.563
374.566
374.573
374.584
374.599
374.618
374.641
374.669
374.702
374.74
374.783
374.831
374.884
374.943
375.008
375.078
375.155
375.237
375.326
375.42
375.522
375.629
375.743
375.863
375.989
376.121
376.259
376.403
376.553
376.708
376.867
377.031
377.198
377.369
377.543
377.718
377.894
378.07
378.246
378.419
378.59
378.757
378.92
379.077
379.228
379.371
379.507
379.634
379.752
379.861
379.961
380.051
380.133
380.207
380.273
380.332
380.384
380.428
380.464
380.494
380.519
380.54
380.558
380.571
380.578
387.285
387.093
386.76
386.325
385.85
385.394
384.983
384.615
384.271
383.935
383.595
383.249
382.902
382.555
382.213
381.876
381.547
381.226
380.914
380.613
380.325
380.05
379.791
379.55
379.325
379.119
378.931
378.76
378.605
378.466
378.339
378.225
378.12
378.024
377.935
377.851
377.771
377.694
377.619
377.545
377.472
377.399
377.327
377.254
377.182
377.109
377.035
376.962
376.888
376.814
376.739
376.665
376.591
376.517
376.443
376.37
376.297
376.225
376.154
376.083
376.013
375.944
375.876
375.809
375.744
375.679
375.615
375.553
375.492
375.432
375.374
375.317
375.261
375.207
375.155
375.104
375.055
375.007
374.961
374.917
374.876
374.836
374.798
374.762
374.728
374.697
374.668
374.642
374.618
374.597
374.579
374.564
374.552
374.543
374.537
374.535
374.536
374.541
374.55
374.562
374.579
374.601
374.627
374.657
374.692
374.732
374.778
374.828
374.884
374.946
375.013
375.086
375.165
375.251
375.342
375.44
375.544
375.654
375.771
375.894
376.023
376.159
376.3
376.447
376.6
376.758
376.92
377.087
377.258
377.432
377.609
377.787
377.966
378.145
378.324
378.5
378.674
378.844
379.009
379.168
379.321
379.466
379.603
379.731
379.85
379.959
380.057
380.146
380.223
380.291
380.349
380.398
380.438
380.472
380.501
380.527
380.549
380.569
380.586
380.597
386.599
386.474
386.246
385.929
385.558
385.173
384.802
384.456
384.131
383.816
383.5
383.179
382.856
382.531
382.209
381.891
381.58
381.277
380.981
380.696
380.421
380.158
379.909
379.675
379.455
379.251
379.063
378.89
378.732
378.587
378.454
378.333
378.22
378.116
378.018
377.926
377.839
377.754
377.673
377.593
377.514
377.437
377.36
377.284
377.208
377.132
377.056
376.98
376.904
376.828
376.752
376.677
376.602
376.527
376.452
376.378
376.305
376.232
376.16
376.088
376.018
375.948
375.88
375.812
375.746
375.68
375.616
375.553
375.491
375.43
375.371
375.313
375.257
375.202
375.149
375.097
375.046
374.998
374.951
374.906
374.862
374.821
374.782
374.745
374.709
374.677
374.646
374.618
374.592
374.569
374.549
374.531
374.517
374.505
374.497
374.492
374.49
374.492
374.498
374.507
374.521
374.538
374.56
374.587
374.618
374.653
374.694
374.74
374.791
374.847
374.909
374.976
375.05
375.129
375.214
375.306
375.403
375.507
375.617
375.733
375.856
375.984
376.119
376.26
376.406
376.558
376.715
376.876
377.042
377.212
377.385
377.561
377.738
377.917
378.096
378.275
378.453
378.629
378.801
378.97
379.134
379.292
379.444
379.589
379.725
379.851
379.968
380.075
380.17
380.255
380.329
380.393
380.445
380.486
380.517
380.54
380.558
380.576
380.593
380.609
386.052
385.962
385.795
385.557
385.266
384.946
384.62
384.304
383.999
383.702
383.407
383.109
382.807
382.503
382.201
381.901
381.607
381.319
381.038
380.766
380.503
380.251
380.011
379.783
379.568
379.367
379.18
379.006
378.845
378.696
378.558
378.43
378.311
378.2
378.096
377.997
377.902
377.812
377.724
377.639
377.555
377.473
377.392
377.313
377.233
377.154
377.076
376.998
376.92
376.842
376.765
376.688
376.612
376.536
376.46
376.386
376.311
376.238
376.165
376.093
376.022
375.952
375.882
375.814
375.747
375.68
375.615
375.552
375.489
375.427
375.367
375.308
375.251
375.195
375.14
375.087
375.036
374.986
374.937
374.891
374.846
374.803
374.762
374.723
374.686
374.651
374.618
374.588
374.56
374.534
374.511
374.491
374.474
374.459
374.447
374.439
374.434
374.432
374.433
374.438
374.447
374.46
374.477
374.498
374.524
374.554
374.588
374.627
374.671
374.721
374.775
374.835
374.9
374.971
375.047
375.13
375.218
375.312
375.412
375.517
375.629
375.747
375.871
376
376.135
376.276
376.422
376.573
376.728
376.888
377.052
377.219
377.389
377.561
377.736
377.911
378.087
378.263
378.438
378.611
378.782
378.949
379.113
379.272
379.425
379.572
379.711
379.843
379.966
380.079
380.182
380.274
380.354
380.421
380.477
380.522
380.559
380.588
380.609
380.62
385.603
385.535
385.406
385.221
384.988
384.721
384.439
384.153
383.871
383.593
383.317
383.038
382.756
382.472
382.187
381.904
381.625
381.351
381.084
380.824
380.572
380.33
380.097
379.876
379.665
379.467
379.281
379.107
378.944
378.792
378.65
378.517
378.393
378.276
378.166
378.061
377.961
377.865
377.772
377.682
377.594
377.508
377.424
377.34
377.258
377.176
377.095
377.015
376.935
376.856
376.777
376.699
376.622
376.545
376.468
376.392
376.317
376.243
376.169
376.097
376.025
375.954
375.884
375.815
375.747
375.68
375.614
375.549
375.485
375.423
375.362
375.302
375.243
375.186
375.13
375.076
375.023
374.971
374.922
374.874
374.827
374.782
374.739
374.698
374.659
374.622
374.587
374.554
374.524
374.495
374.469
374.446
374.425
374.407
374.392
374.379
374.37
374.364
374.361
374.361
374.365
374.372
374.383
374.399
374.418
374.441
374.468
374.5
374.536
374.577
374.623
374.673
374.729
374.79
374.856
374.927
375.003
375.085
375.173
375.265
375.364
375.468
375.577
375.692
375.812
375.937
376.068
376.203
376.343
376.487
376.636
376.788
376.944
377.103
377.265
377.429
377.596
377.763
377.932
378.102
378.271
378.44
378.608
378.774
378.939
379.1
379.258
379.411
379.56
379.702
379.837
379.964
380.082
380.19
380.287
380.372
380.446
380.506
380.554
380.587
385.228
385.174
385.071
384.922
384.73
384.507
384.262
384.006
383.747
383.488
383.229
382.967
382.703
382.436
382.169
381.901
381.636
381.376
381.12
380.871
380.629
380.395
380.17
379.954
379.749
379.553
379.369
379.194
379.03
378.876
378.731
378.595
378.466
378.345
378.23
378.12
378.015
377.914
377.817
377.723
377.631
377.541
377.453
377.366
377.281
377.197
377.114
377.032
376.95
376.869
376.789
376.71
376.631
376.553
376.475
376.398
376.322
376.247
376.173
376.099
376.027
375.955
375.884
375.814
375.745
375.678
375.611
375.545
375.481
375.417
375.355
375.294
375.234
375.176
375.119
375.063
375.009
374.956
374.904
374.854
374.806
374.76
374.715
374.671
374.63
374.591
374.553
374.518
374.484
374.453
374.424
374.397
374.373
374.351
374.332
374.316
374.302
374.291
374.283
374.278
374.277
374.278
374.284
374.292
374.304
374.32
374.34
374.364
374.392
374.424
374.46
374.5
374.546
374.595
374.65
374.709
374.772
374.841
374.914
374.993
375.076
375.164
375.257
375.355
375.458
375.565
375.677
375.794
375.914
376.039
376.168
376.301
376.438
376.578
376.721
376.867
377.016
377.168
377.322
377.478
377.637
377.797
377.959
378.122
378.287
378.452
378.618
378.784
378.949
379.112
379.274
379.432
379.586
379.734
379.876
380.008
380.13
380.24
380.333
380.405
384.912
384.867
384.782
384.658
384.497
384.306
384.092
383.864
383.628
383.387
383.145
382.899
382.651
382.4
382.147
381.894
381.642
381.394
381.149
380.91
380.677
380.451
380.232
380.022
379.82
379.628
379.445
379.271
379.106
378.951
378.804
378.664
378.532
378.407
378.288
378.174
378.065
377.96
377.858
377.76
377.665
377.572
377.48
377.391
377.303
377.217
377.131
377.047
376.964
376.881
376.8
376.719
376.639
376.56
376.481
376.404
376.327
376.251
376.175
376.101
376.028
375.955
375.883
375.813
375.743
375.674
375.607
375.54
375.475
375.41
375.347
375.285
375.224
375.164
375.106
375.048
374.993
374.938
374.885
374.834
374.784
374.735
374.688
374.643
374.599
374.557
374.517
374.479
374.443
374.409
374.377
374.347
374.319
374.293
374.27
374.249
374.231
374.215
374.202
374.192
374.185
374.181
374.18
374.181
374.187
374.195
374.207
374.222
374.241
374.264
374.291
374.321
374.355
374.393
374.435
374.482
374.532
374.587
374.646
374.709
374.776
374.847
374.923
375.003
375.087
375.175
375.267
375.362
375.462
375.565
375.672
375.782
375.896
376.013
376.133
376.256
376.383
376.513
376.645
376.781
376.921
377.063
377.209
377.359
377.512
377.67
377.831
377.995
378.164
378.336
378.511
378.689
378.868
379.047
379.225
379.4
379.568
379.727
379.871
379.994
384.642
384.605
384.532
384.426
384.289
384.123
383.935
383.73
383.515
383.292
383.065
382.834
382.6
382.363
382.124
381.883
381.644
381.406
381.171
380.941
380.716
380.497
380.285
380.079
379.882
379.692
379.511
379.338
379.173
379.016
378.867
378.725
378.591
378.462
378.34
378.222
378.109
378.001
377.896
377.795
377.696
377.6
377.506
377.414
377.324
377.235
377.148
377.061
376.976
376.892
376.809
376.727
376.646
376.566
376.486
376.408
376.33
376.253
376.177
376.102
376.028
375.954
375.882
375.81
375.74
375.67
375.601
375.534
375.467
375.402
375.337
375.274
375.212
375.151
375.091
375.033
374.976
374.92
374.865
374.812
374.76
374.709
374.66
374.613
374.567
374.522
374.48
374.439
374.4
374.363
374.327
374.294
374.262
374.233
374.205
374.18
374.158
374.137
374.119
374.104
374.091
374.08
374.073
374.068
374.066
374.066
374.07
374.077
374.087
374.101
374.117
374.137
374.16
374.187
374.216
374.25
374.287
374.327
374.371
374.418
374.469
374.524
374.581
374.642
374.707
374.775
374.845
374.92
374.997
375.077
375.16
375.246
375.335
375.427
375.521
375.619
375.719
375.823
375.93
376.04
376.155
376.273
376.396
376.524
376.657
376.796
376.941
377.093
377.251
377.418
377.591
377.773
377.961
378.155
378.355
378.557
378.76
378.959
379.149
379.323
384.412
384.38
384.317
384.225
384.104
383.959
383.791
383.606
383.409
383.203
382.99
382.773
382.552
382.327
382.1
381.871
381.642
381.414
381.189
380.967
380.749
380.536
380.329
380.128
379.934
379.747
379.567
379.395
379.23
379.073
378.923
378.779
378.642
378.511
378.386
378.265
378.15
378.038
377.93
377.826
377.724
377.625
377.529
377.435
377.342
377.251
377.162
377.074
376.988
376.902
376.818
376.735
376.652
376.571
376.491
376.411
376.332
376.255
376.178
376.102
376.027
375.952
375.879
375.807
375.735
375.665
375.595
375.527
375.459
375.393
375.327
375.263
375.199
375.137
375.076
375.016
374.957
374.9
374.843
374.788
374.734
374.682
374.631
374.581
374.533
374.486
374.441
374.397
374.355
374.315
374.276
374.239
374.204
374.17
374.139
374.11
374.082
374.057
374.034
374.013
373.994
373.977
373.963
373.951
373.942
373.935
373.931
373.929
373.93
373.934
373.941
373.95
373.962
373.977
373.994
374.014
374.038
374.064
374.092
374.124
374.158
374.195
374.235
374.277
374.322
374.369
374.418
374.47
374.525
374.581
374.64
374.7
374.763
374.829
374.896
374.966
375.038
375.114
375.192
375.274
375.359
375.449
375.543
375.643
375.75
375.863
375.984
376.113
376.252
376.4
376.56
376.73
376.912
377.106
377.309
377.522
377.742
377.966
378.188
378.402
384.216
384.187
384.132
384.05
383.943
383.813
383.662
383.494
383.312
383.121
382.922
382.716
382.506
382.293
382.076
381.857
381.638
381.419
381.201
380.987
380.775
380.568
380.366
380.169
379.978
379.794
379.616
379.445
379.28
379.122
378.971
378.826
378.687
378.554
378.426
378.304
378.185
378.071
377.961
377.854
377.75
377.648
377.55
377.453
377.359
377.266
377.175
377.086
376.998
376.911
376.825
376.741
376.658
376.575
376.494
376.413
376.334
376.255
376.177
376.1
376.025
375.949
375.875
375.802
375.73
375.658
375.588
375.518
375.45
375.382
375.316
375.25
375.185
375.122
375.059
374.998
374.938
374.878
374.82
374.763
374.708
374.653
374.6
374.548
374.497
374.448
374.4
374.354
374.309
374.265
374.223
374.183
374.144
374.106
374.071
374.037
374.005
373.975
373.946
373.92
373.895
373.872
373.852
373.833
373.816
373.802
373.789
373.779
373.771
373.765
373.762
373.76
373.761
373.764
373.769
373.776
373.786
373.797
373.811
373.827
373.844
373.864
373.885
373.908
373.933
373.96
373.988
374.017
374.048
374.08
374.114
374.149
374.186
374.223
374.263
374.304
374.347
374.392
374.44
374.49
374.545
374.603
374.666
374.734
374.809
374.892
374.982
375.082
375.193
375.316
375.451
375.6
375.763
375.942
376.135
376.342
376.563
376.794
377.032
377.273
384.049
384.023
383.973
383.9
383.803
383.685
383.548
383.393
383.225
383.047
382.859
382.665
382.465
382.261
382.053
381.844
381.632
381.421
381.211
381.002
380.797
380.594
380.397
380.203
380.016
379.833
379.657
379.487
379.323
379.165
379.013
378.867
378.726
378.592
378.462
378.337
378.216
378.1
377.987
377.878
377.772
377.669
377.568
377.47
377.373
377.279
377.187
377.096
377.006
376.918
376.831
376.746
376.661
376.578
376.496
376.414
376.334
376.254
376.176
376.098
376.021
375.946
375.871
375.796
375.723
375.651
375.58
375.509
375.439
375.371
375.303
375.236
375.17
375.105
375.042
374.979
374.917
374.856
374.796
374.737
374.68
374.623
374.568
374.514
374.461
374.409
374.358
374.309
374.261
374.214
374.169
374.125
374.082
374.041
374.001
373.963
373.926
373.891
373.857
373.825
373.794
373.765
373.738
373.713
373.689
373.667
373.646
373.627
373.61
373.595
373.581
373.569
373.558
373.549
373.542
373.536
373.532
373.529
373.528
373.527
373.528
373.53
373.533
373.537
373.542
373.548
373.554
373.561
373.569
373.577
373.585
373.594
373.603
373.613
373.623
373.635
373.647
373.661
373.677
373.695
373.716
373.741
373.77
373.804
373.844
373.892
373.948
374.015
374.092
374.182
374.286
374.406
374.542
374.695
374.867
375.057
375.265
375.49
375.731
375.984
383.908
383.884
383.839
383.772
383.684
383.575
383.448
383.306
383.149
382.981
382.803
382.618
382.427
382.232
382.032
381.83
381.626
381.421
381.217
381.014
380.814
380.616
380.422
380.232
380.046
379.866
379.691
379.522
379.358
379.2
379.048
378.901
378.76
378.623
378.492
378.365
378.243
378.125
378.01
377.899
377.791
377.686
377.584
377.484
377.386
377.29
377.196
377.104
377.013
376.924
376.836
376.75
376.664
376.58
376.497
376.414
376.333
376.253
376.173
376.095
376.017
375.941
375.865
375.79
375.716
375.643
375.57
375.499
375.428
375.358
375.289
375.221
375.154
375.088
375.023
374.958
374.895
374.833
374.771
374.711
374.651
374.592
374.535
374.478
374.423
374.369
374.315
374.263
374.212
374.162
374.113
374.066
374.019
373.974
373.93
373.887
373.846
373.805
373.766
373.729
373.692
373.657
373.623
373.591
373.56
373.53
373.501
373.474
373.447
373.422
373.398
373.376
373.354
373.333
373.314
373.295
373.277
373.259
373.243
373.226
373.211
373.195
373.18
373.165
373.15
373.134
373.119
373.103
373.087
373.07
373.053
373.035
373.017
372.998
372.979
372.96
372.942
372.923
372.906
372.89
372.876
372.865
372.858
372.855
372.859
372.869
372.888
372.916
372.956
373.01
373.077
373.162
373.264
373.386
373.528
373.692
373.879
374.088
374.319
374.572
383.791
383.769
383.727
383.665
383.583
383.483
383.364
383.23
383.083
382.923
382.755
382.578
382.394
382.206
382.013
381.817
381.619
381.421
381.222
381.023
380.827
380.633
380.442
380.255
380.072
379.893
379.72
379.551
379.388
379.23
379.077
378.93
378.787
378.65
378.517
378.389
378.265
378.145
378.029
377.917
377.807
377.7
377.596
377.495
377.396
377.299
377.204
377.11
377.019
376.928
376.84
376.752
376.666
376.58
376.496
376.413
376.331
376.25
376.17
376.091
376.012
375.935
375.858
375.782
375.707
375.633
375.56
375.488
375.416
375.345
375.275
375.206
375.137
375.07
375.003
374.937
374.872
374.808
374.745
374.683
374.621
374.56
374.501
374.442
374.384
374.327
374.271
374.216
374.162
374.109
374.057
374.005
373.955
373.906
373.858
373.81
373.764
373.719
373.675
373.631
373.589
373.548
373.507
373.468
373.429
373.392
373.355
373.319
373.283
373.249
373.215
373.181
373.149
373.116
373.084
373.052
373.02
372.989
372.957
372.925
372.892
372.859
372.826
372.791
372.756
372.72
372.682
372.644
372.604
372.562
372.519
372.474
372.428
372.38
372.331
372.281
372.23
372.178
372.126
372.075
372.025
371.977
371.931
371.89
371.854
371.824
371.802
371.79
371.789
371.801
371.829
371.873
371.937
372.022
372.129
372.261
372.42
372.605
372.82
373.064
383.696
383.676
383.636
383.578
383.501
383.406
383.295
383.168
383.027
382.875
382.714
382.543
382.366
382.184
381.997
381.806
381.613
381.419
381.224
381.03
380.837
380.646
380.458
380.273
380.092
379.915
379.742
379.574
379.411
379.254
379.101
378.953
378.81
378.671
378.538
378.409
378.283
378.162
378.045
377.931
377.82
377.712
377.607
377.504
377.404
377.306
377.209
377.115
377.022
376.931
376.841
376.753
376.666
376.58
376.495
376.411
376.328
376.247
376.166
376.086
376.006
375.928
375.851
375.774
375.698
375.623
375.549
375.475
375.403
375.331
375.26
375.189
375.12
375.051
374.983
374.915
374.849
374.783
374.718
374.654
374.59
374.528
374.466
374.405
374.344
374.285
374.226
374.168
374.111
374.055
373.999
373.944
373.89
373.837
373.784
373.733
373.682
373.632
373.582
373.533
373.485
373.437
373.39
373.344
373.298
373.253
373.208
373.163
373.119
373.075
373.031
372.987
372.943
372.898
372.854
372.809
372.764
372.717
372.67
372.623
372.573
372.523
372.471
372.418
372.362
372.305
372.245
372.184
372.119
372.053
371.983
371.911
371.836
371.759
371.679
371.597
371.513
371.427
371.339
371.251
371.163
371.076
370.99
370.908
370.829
370.757
370.691
370.635
370.59
370.558
370.541
370.542
370.563
370.606
370.674
370.769
370.894
371.051
371.241
371.469
383.621
383.602
383.565
383.51
383.436
383.346
383.239
383.118
382.983
382.837
382.68
382.515
382.343
382.165
381.983
381.796
381.608
381.417
381.226
381.035
380.844
380.656
380.47
380.287
380.107
379.931
379.76
379.592
379.43
379.272
379.119
378.971
378.827
378.688
378.554
378.423
378.297
378.175
378.057
377.941
377.829
377.72
377.614
377.511
377.409
377.31
377.213
377.118
377.024
376.932
376.842
376.753
376.665
376.578
376.492
376.408
376.324
376.242
376.16
376.079
376
375.921
375.842
375.765
375.688
375.612
375.537
375.462
375.389
375.316
375.243
375.172
375.101
375.031
374.961
374.892
374.824
374.757
374.69
374.624
374.559
374.494
374.43
374.367
374.304
374.242
374.18
374.119
374.059
374
373.941
373.882
373.824
373.767
373.711
373.654
373.599
373.543
373.489
373.434
373.38
373.326
373.273
373.22
373.166
373.113
373.06
373.007
372.954
372.9
372.846
372.792
372.736
372.681
372.624
372.566
372.507
372.446
372.384
372.321
372.255
372.187
372.117
372.044
371.969
371.89
371.809
371.724
371.635
371.543
371.447
371.347
371.244
371.136
371.025
370.91
370.791
370.669
370.545
370.419
370.291
370.163
370.035
369.909
369.786
369.667
369.555
369.452
369.359
369.278
369.214
369.167
369.14
369.138
369.162
369.215
369.302
369.424
369.585
369.789
383.566
383.548
383.512
383.459
383.388
383.301
383.198
383.08
382.95
382.808
382.655
382.494
382.326
382.151
381.972
381.789
381.603
381.415
381.226
381.037
380.849
380.663
380.478
380.297
380.118
379.943
379.772
379.605
379.443
379.285
379.132
378.983
378.839
378.7
378.565
378.434
378.307
378.184
378.065
377.949
377.836
377.726
377.619
377.515
377.412
377.313
377.215
377.119
377.024
376.932
376.841
376.751
376.662
376.575
376.489
376.403
376.319
376.236
376.154
376.072
375.992
375.912
375.833
375.755
375.677
375.6
375.524
375.449
375.374
375.3
375.226
375.154
375.082
375.01
374.939
374.869
374.799
374.73
374.662
374.594
374.526
374.46
374.393
374.328
374.263
374.198
374.134
374.07
374.007
373.944
373.882
373.82
373.758
373.697
373.636
373.575
373.515
373.455
373.395
373.335
373.275
373.215
373.155
373.095
373.035
372.974
372.913
372.851
372.789
372.726
372.662
372.597
372.531
372.463
372.394
372.324
372.251
372.176
372.099
372.02
371.938
371.852
371.764
371.672
371.576
371.477
371.373
371.265
371.152
371.034
370.911
370.783
370.65
370.512
370.368
370.219
370.066
369.907
369.745
369.579
369.41
369.238
369.066
368.894
368.723
368.556
368.394
368.239
368.094
367.962
367.844
367.745
367.667
367.614
367.589
367.596
367.638
367.72
367.846
368.02
383.53
383.512
383.477
383.425
383.356
383.271
383.17
383.055
382.927
382.788
382.638
382.48
382.314
382.142
381.965
381.783
381.599
381.413
381.226
381.039
380.852
380.667
380.483
380.303
380.125
379.95
379.78
379.613
379.451
379.293
379.14
378.991
378.847
378.707
378.572
378.44
378.313
378.189
378.069
377.953
377.839
377.729
377.621
377.516
377.413
377.313
377.214
377.118
377.023
376.93
376.838
376.747
376.658
376.57
376.484
376.398
376.313
376.229
376.146
376.064
375.983
375.902
375.823
375.744
375.665
375.588
375.511
375.434
375.358
375.283
375.209
375.135
375.061
374.989
374.916
374.845
374.773
374.703
374.632
374.563
374.493
374.425
374.356
374.288
374.221
374.153
374.087
374.02
373.954
373.888
373.822
373.757
373.691
373.626
373.561
373.496
373.431
373.366
373.301
373.235
373.17
373.104
373.037
372.97
372.903
372.835
372.765
372.695
372.624
372.552
372.478
372.403
372.326
372.247
372.166
372.082
371.996
371.908
371.816
371.721
371.622
371.519
371.413
371.302
371.186
371.065
370.939
370.808
370.67
370.527
370.377
370.22
370.057
369.888
369.711
369.528
369.338
369.142
368.94
368.732
368.519
368.303
368.084
367.863
367.642
367.422
367.206
366.997
366.795
366.606
366.431
366.274
366.139
366.029
365.95
365.904
365.897
365.934
366.017
366.153
383.512
383.494
383.459
383.408
383.34
383.256
383.156
383.042
382.916
382.778
382.629
382.472
382.307
382.136
381.96
381.78
381.597
381.412
381.226
381.039
380.853
380.668
380.485
380.305
380.127
379.953
379.783
379.617
379.454
379.297
379.143
378.994
378.85
378.71
378.574
378.442
378.314
378.19
378.07
377.953
377.839
377.728
377.62
377.515
377.412
377.311
377.212
377.115
377.02
376.926
376.834
376.743
376.653
376.565
376.477
376.391
376.306
376.221
376.138
376.055
375.973
375.892
375.812
375.732
375.653
375.574
375.496
375.419
375.342
375.266
375.19
375.115
375.041
374.967
374.893
374.82
374.747
374.675
374.603
374.531
374.46
374.389
374.319
374.248
374.178
374.109
374.039
373.97
373.901
373.832
373.762
373.693
373.624
373.555
373.486
373.417
373.347
373.277
373.207
373.136
373.064
372.992
372.92
372.846
372.771
372.696
372.619
372.54
372.461
372.379
372.296
372.21
372.122
372.032
371.939
371.843
371.744
371.641
371.534
371.424
371.309
371.189
371.064
370.934
370.798
370.656
370.508
370.353
370.191
370.022
369.844
369.659
369.466
369.264
369.054
368.836
368.609
368.373
368.13
367.879
367.622
367.358
367.089
366.816
366.541
366.266
365.993
365.723
365.461
365.209
364.971
364.751
364.553
364.38
364.24
364.135
364.071
364.055
364.089
364.181
383.511
383.493
383.459
383.407
383.339
383.255
383.156
383.042
382.915
382.777
382.629
382.472
382.307
382.136
381.96
381.78
381.596
381.411
381.225
381.038
380.852
380.667
380.484
380.304
380.126
379.952
379.782
379.615
379.453
379.295
379.141
378.992
378.848
378.708
378.572
378.44
378.312
378.188
378.067
377.95
377.836
377.725
377.617
377.511
377.408
377.307
377.207
377.11
377.014
376.92
376.828
376.737
376.647
376.558
376.47
376.383
376.298
376.213
376.129
376.045
375.963
375.881
375.8
375.719
375.639
375.56
375.481
375.403
375.325
375.248
375.171
375.095
375.019
374.944
374.869
374.794
374.72
374.646
374.573
374.499
374.426
374.353
374.281
374.208
374.136
374.064
373.991
373.919
373.847
373.775
373.703
373.63
373.557
373.484
373.411
373.337
373.263
373.188
373.113
373.037
372.96
372.882
372.803
372.722
372.641
372.558
372.473
372.387
372.298
372.208
372.114
372.019
371.92
371.819
371.714
371.606
371.493
371.377
371.256
371.13
370.999
370.862
370.719
370.57
370.414
370.251
370.081
369.903
369.716
369.52
369.316
369.101
368.878
368.644
368.399
368.145
367.88
367.604
367.318
367.023
366.718
366.404
366.083
365.756
365.424
365.089
364.753
364.42
364.091
363.771
363.464
363.173
362.904
362.662
362.452
362.281
362.153
362.074
362.052
362.091
383.529
383.51
383.475
383.423
383.355
383.269
383.169
383.054
382.926
382.786
382.636
382.478
382.312
382.14
381.963
381.781
381.597
381.411
381.224
381.036
380.85
380.664
380.48
380.299
380.121
379.947
379.776
379.609
379.447
379.289
379.135
378.986
378.841
378.701
378.565
378.433
378.305
378.181
378.061
377.944
377.83
377.719
377.611
377.505
377.401
377.3
377.201
377.103
377.008
376.913
376.821
376.729
376.639
376.55
376.462
376.375
376.288
376.203
376.118
376.035
375.951
375.869
375.787
375.706
375.625
375.545
375.466
375.387
375.308
375.23
375.152
375.075
374.998
374.921
374.845
374.768
374.693
374.617
374.542
374.467
374.392
374.317
374.242
374.168
374.093
374.018
373.943
373.869
373.794
373.718
373.643
373.567
373.49
373.414
373.336
373.258
373.18
373.1
373.02
372.938
372.856
372.772
372.687
372.6
372.511
372.421
372.329
372.234
372.137
372.038
371.935
371.83
371.721
371.608
371.492
371.371
371.246
371.116
370.98
370.839
370.692
370.539
370.378
370.21
370.035
369.851
369.659
369.457
369.245
369.024
368.792
368.548
368.293
368.027
367.748
367.456
367.152
366.835
366.506
366.164
365.81
365.444
365.069
364.683
364.29
363.891
363.489
363.085
362.685
362.29
361.906
361.538
361.191
360.87
360.582
360.334
360.132
359.983
359.895
359.873
383.564
383.546
383.51
383.456
383.386
383.298
383.195
383.078
382.947
382.805
382.652
382.491
382.323
382.148
381.969
381.785
381.599
381.411
381.222
381.033
380.845
380.658
380.473
380.291
380.112
379.937
379.766
379.598
379.436
379.277
379.124
378.975
378.83
378.69
378.554
378.423
378.295
378.171
378.051
377.934
377.82
377.71
377.602
377.496
377.393
377.291
377.192
377.095
376.999
376.905
376.812
376.72
376.63
376.54
376.452
376.365
376.278
376.192
376.107
376.023
375.939
375.856
375.774
375.692
375.611
375.53
375.449
375.369
375.29
375.211
375.132
375.053
374.975
374.897
374.82
374.742
374.665
374.588
374.511
374.434
374.357
374.281
374.204
374.127
374.05
373.973
373.896
373.818
373.74
373.662
373.583
373.504
373.424
373.343
373.262
373.18
373.097
373.013
372.927
372.841
372.753
372.663
372.572
372.479
372.383
372.286
372.186
372.084
371.979
371.87
371.759
371.643
371.524
371.401
371.273
371.14
371.002
370.859
370.709
370.553
370.391
370.22
370.042
369.856
369.661
369.457
369.242
369.017
368.781
368.534
368.274
368.001
367.715
367.415
367.101
366.772
366.429
366.069
365.695
365.305
364.9
364.48
364.046
363.6
363.142
362.675
362.2
361.722
361.242
360.766
360.298
359.843
359.407
358.998
358.622
358.286
358
357.77
357.606
357.513
383.618
383.599
383.562
383.506
383.433
383.343
383.236
383.114
382.98
382.833
382.677
382.511