/*--------------------------------*- C++ -*----------------------------------*\
| =========                 |                                                 |
| \\      /  F ield         | OpenFOAM: The Open Source CFD Toolbox           |
|  \\    /   O peration     | Version:  2306                                  |
|   \\  /    A nd           | Website:  www.openfoam.com                      |
|    \\/     M anipulation  |                                                 |
\*---------------------------------------------------------------------------*/
FoamFile
{
    version     2.0;
    format      ascii;
    arch        "LSB;label=32;scalar=64";
    class       surfaceScalarField;
    location    "0.15";
    object      phi;
}
// * * * * * * * * * * * * * * * * * * * * * * * * * * * * * * * * * * * * * //

dimensions      [0 3 -1 0 0 0 0];

oriented        oriented;

internalField   nonuniform List<scalar> 
34640
(
0.0049244
7.55986e-05
0.00478599
0.000138414
0.00463052
0.000155466
0.00447385
0.000156668
0.00431583
0.000158022
0.00415467
0.000161161
0.00399075
0.000163919
0.00382542
0.000165328
0.00366032
0.000165103
0.00349682
0.000163495
0.00333584
0.000160979
0.00317798
0.000157864
0.00302377
0.000154214
0.00287378
0.000149987
0.00272865
0.000145131
0.00258902
0.000139626
0.00245559
0.000133435
0.00232895
0.000126643
0.00220946
0.000119483
0.00209753
0.00011193
0.00199347
0.000104065
0.00189747
9.59991e-05
0.00180961
8.78541e-05
0.00172986
7.97591e-05
0.00165801
7.18415e-05
0.00159379
6.42205e-05
0.00153679
5.70004e-05
0.00148653
5.02662e-05
0.00144245
4.40801e-05
0.00140397
3.84818e-05
0.00137048
3.34878e-05
0.00134138
2.90952e-05
0.0013161
2.52834e-05
0.00129408
2.20198e-05
0.00127482
1.92618e-05
0.00125786
1.69611e-05
0.00124279
1.50628e-05
0.00122929
1.35033e-05
0.00121706
1.22325e-05
0.00120585
1.12102e-05
0.00119545
1.03995e-05
0.00118568
9.76503e-06
0.00117641
9.2742e-06
0.00116751
8.89796e-06
0.0011589
8.61152e-06
0.0011505
8.39427e-06
0.00114228
8.2294e-06
0.00113417
8.10334e-06
0.00112617
8.00523e-06
0.00111824
7.92658e-06
0.00111038
7.86079e-06
0.00110258
7.80294e-06
0.00109483
7.74941e-06
0.00108713
7.6977e-06
0.00107948
7.64618e-06
0.00107189
7.59388e-06
0.00106435
7.54036e-06
0.00105686
7.48558e-06
0.00104943
7.42977e-06
0.00104206
7.37335e-06
0.00103474
7.3169e-06
0.00102748
7.26105e-06
0.00102028
7.20651e-06
0.00101312
7.15397e-06
0.00100602
7.10414e-06
0.00099896
7.05772e-06
0.000991944
7.01537e-06
0.000984967
6.97771e-06
0.000978021
6.94533e-06
0.000971103
6.9188e-06
0.000964204
6.89863e-06
0.000957319
6.8853e-06
0.000950439
6.87924e-06
0.000943558
6.88087e-06
0.000936668
6.89061e-06
0.000929759
6.90885e-06
0.000922823
6.93602e-06
0.000915851
6.9725e-06
0.000908832
7.0187e-06
0.000901757
7.07499e-06
0.000894615
7.14176e-06
0.000887396
7.2194e-06
0.000880087
7.30832e-06
0.000872678
7.40893e-06
0.000865157
7.52165e-06
0.00085751
7.64691e-06
0.000849725
7.78517e-06
0.000841788
7.93688e-06
0.000833685
8.1025e-06
0.000825403
8.28253e-06
0.000816925
8.47745e-06
0.000808237
8.68775e-06
0.000799323
8.91396e-06
0.000790167
9.15656e-06
0.000780751
9.41606e-06
0.000771058
9.69295e-06
0.00076107
9.98772e-06
0.000750769
1.03008e-05
0.000740137
1.06326e-05
0.000729153
1.09836e-05
0.000717799
1.13539e-05
0.000706055
1.17439e-05
0.000693902
1.21537e-05
0.000681318
1.25833e-05
0.000668286
1.30325e-05
0.000654785
1.35012e-05
0.000640796
1.39888e-05
0.000626301
1.44949e-05
0.000611283
1.50185e-05
0.000595724
1.55583e-05
0.000579612
1.61127e-05
0.000562932
1.66798e-05
0.000545675
1.72573e-05
0.000527832
1.78423e-05
0.000509401
1.84314e-05
0.00049038
1.90206e-05
0.000470775
1.96052e-05
0.000450596
2.01798e-05
0.000429857
2.07383e-05
0.000408583
2.12738e-05
0.000386805
2.17789e-05
0.00036456
2.22451e-05
0.000341896
2.26634e-05
0.000318872
2.30243e-05
0.000295554
2.33178e-05
0.000272021
2.35337e-05
0.000248359
2.36619e-05
0.000224666
2.36929e-05
0.000201048
2.36178e-05
0.000177619
2.34292e-05
0.000154497
2.31216e-05
0.000131806
2.26914e-05
0.000109668
2.21379e-05
8.8205e-05
2.14628e-05
6.75344e-05
2.06705e-05
4.77673e-05
1.97672e-05
2.90076e-05
1.87597e-05
1.13533e-05
1.76543e-05
-5.10382e-06
1.64571e-05
-2.02814e-05
1.51776e-05
-3.40864e-05
1.3805e-05
-4.64405e-05
1.23541e-05
-5.7286e-05
1.08455e-05
-6.66e-05
9.31399e-06
-7.44093e-05
7.80933e-06
-8.07943e-05
6.38496e-06
-8.58693e-05
5.07502e-06
-8.97444e-05
3.87512e-06
-9.24899e-05
2.74554e-06
-9.4141e-05
1.65111e-06
-9.47557e-05
6.14715e-07
-9.44502e-05
-3.05549e-07
-9.3471e-05
-9.79149e-07
-9.18831e-05
-1.58791e-06
-8.93732e-05
-2.50993e-06
-8.54527e-05
-3.92057e-06
-7.99472e-05
-5.5055e-06
-7.34135e-05
-6.53373e-06
-6.7113e-05
-6.30045e-06
-4.38575e-06
-6.27273e-05
0.00503752
3.80748e-05
0.0050774
9.85345e-05
0.00509715
0.000135719
0.00510103
0.000152794
0.00509795
0.000161095
0.00509064
0.000168476
0.0050778
0.000176755
0.00505834
0.000184795
0.00503218
0.000191256
0.00500001
0.000195668
0.00496269
0.000198297
0.00492097
0.000199585
0.00487538
0.000199802
0.00482634
0.000199034
0.0047742
0.000197263
0.00471938
0.000194448
0.00466223
0.000190582
0.00460315
0.00018573
0.00454264
0.000179994
0.00448112
0.000173447
0.004419
0.000166182
0.00435668
0.000158318
0.00429454
0.000149998
0.00423292
0.00014138
0.00417214
0.000132621
0.00411248
0.000123878
0.00405419
0.000115294
0.00399746
0.000106998
0.00394244
9.90952e-05
0.00388926
9.16677e-05
0.00383797
8.47717e-05
0.00378862
7.84416e-05
0.00374122
7.26879e-05
0.00369573
6.75058e-05
0.00365212
6.28728e-05
0.00361032
5.87682e-05
0.00357018
5.51977e-05
0.00353168
5.20007e-05
0.00349475
4.91691e-05
0.00345928
4.66792e-05
0.00342518
4.44931e-05
0.00339238
4.25729e-05
0.00336077
4.0883e-05
0.00333028
3.93903e-05
0.00330082
3.80654e-05
0.00327233
3.68824e-05
0.00324474
3.58193e-05
0.00321799
3.48571e-05
0.00319202
3.39799e-05
0.00316677
3.31742e-05
0.0031422
3.2429e-05
0.00311827
3.17352e-05
0.00309493
3.10855e-05
0.00307215
3.04741e-05
0.0030499
2.98965e-05
0.00302815
2.93491e-05
0.00300686
2.88292e-05
0.00298601
2.83351e-05
0.00296557
2.78651e-05
0.00294553
2.74184e-05
0.00292585
2.69944e-05
0.00290652
2.65927e-05
0.00288751
2.62132e-05
0.00286881
2.5856e-05
0.00285039
2.55212e-05
0.00283224
2.5209e-05
0.00281434
2.49199e-05
0.00279666
2.46543e-05
0.0027792
2.44125e-05
0.00276192
2.41951e-05
0.00274481
2.40026e-05
0.00272786
2.38356e-05
0.00271105
2.36944e-05
0.00269435
2.35797e-05
0.00267775
2.3492e-05
0.00266123
2.34321e-05
0.00264476
2.34008e-05
0.00262834
2.33987e-05
0.00261193
2.34267e-05
0.00259552
2.34856e-05
0.00257908
2.35765e-05
0.0025626
2.37001e-05
0.00254605
2.38577e-05
0.00252941
2.40503e-05
0.00251265
2.4279e-05
0.00249575
2.45452e-05
0.00247869
2.48501e-05
0.00246143
2.51951e-05
0.00244395
2.55818e-05
0.00242622
2.60116e-05
0.00240821
2.64863e-05
0.00238989
2.70076e-05
0.00237123
2.75772e-05
0.00235219
2.8197e-05
0.00233274
2.8869e-05
0.00231284
2.95952e-05
0.00229245
3.03777e-05
0.00227153
3.12185e-05
0.00225004
3.21199e-05
0.00222794
3.3084e-05
0.00220518
3.41129e-05
0.00218172
3.52089e-05
0.0021575
3.6374e-05
0.00213247
3.76102e-05
0.00210658
3.89194e-05
0.00207978
4.03028e-05
0.00205201
4.17618e-05
0.0020232
4.32986e-05
0.00199331
4.49139e-05
0.00196226
4.66078e-05
0.00192999
4.838e-05
0.00189644
5.02301e-05
0.00186154
5.21566e-05
0.00182523
5.41575e-05
0.00178743
5.62293e-05
0.00174808
5.83673e-05
0.00170712
6.05656e-05
0.00166449
6.28164e-05
0.00162011
6.51105e-05
0.00157395
6.74364e-05
0.00152595
6.97806e-05
0.00147607
7.21267e-05
0.00142427
7.4456e-05
0.00137055
7.67467e-05
0.0013149
7.89737e-05
0.00125732
8.11085e-05
0.00119786
8.31194e-05
0.00113659
8.49706e-05
0.00107358
8.66232e-05
0.00100898
8.80341e-05
0.00094294
8.91576e-05
0.000875687
8.99447e-05
0.00080748
9.03445e-05
0.000738637
9.03055e-05
0.000669531
8.9777e-05
0.000600586
8.87116e-05
0.000532278
8.70682e-05
0.000465117
8.48153e-05
0.000399639
8.19352e-05
0.000336379
7.8437e-05
0.000275841
7.43438e-05
0.000218478
6.97167e-05
0.000164676
6.46474e-05
0.000114738
5.92519e-05
6.88878e-05
5.36599e-05
2.72805e-05
4.79922e-05
-9.98765e-06
4.23432e-05
-4.28998e-05
3.67873e-05
-7.15643e-05
3.14101e-05
-9.5851e-05
2.59377e-05
-0.000116002
2.07653e-05
-0.000132361
1.6054e-05
-0.000145366
1.20255e-05
-0.00015523
8.27656e-06
-0.000161736
3.99603e-06
-0.000164537
-1.11982e-06
-0.000163601
-6.44192e-06
-0.000160025
-1.01096e-05
-0.000155706
-1.06194e-05
-6.8985e-06
-0.000153193
0.00501445
2.36271e-05
0.00504447
6.85089e-05
0.00507418
0.00010601
0.00509859
0.000128386
0.00511781
0.000141875
0.00513504
0.000151252
0.00515197
0.000159825
0.00516819
0.000168572
0.00518273
0.000176719
0.00519493
0.000183467
0.00520466
0.000188565
0.00521209
0.00019215
0.00521741
0.000194486
0.00522067
0.000195773
0.00522184
0.00019609
0.00522086
0.000195431
0.00521766
0.000193779
0.00521225
0.000191142
0.0052047
0.000187548
0.00519506
0.000183086
0.00518341
0.000177831
0.00516985
0.000171879
0.0051545
0.000165348
0.0051375
0.000158373
0.00511903
0.000151096
0.00509925
0.000143658
0.00507835
0.000136196
0.00505651
0.000128838
0.00503391
0.000121694
0.00501072
0.000114856
0.0049871
0.000108394
0.00496318
0.000102359
0.00493909
9.67806e-05
0.00491492
9.16727e-05
0.00489076
8.70346e-05
0.00486667
8.28558e-05
0.00484276
7.91094e-05
0.00481902
7.57409e-05
0.00479547
7.27158e-05
0.00477214
7.00092e-05
0.00474904
6.7594e-05
0.00472618
6.54397e-05
0.00470354
6.35151e-05
0.00468114
6.17905e-05
0.00465897
6.02384e-05
0.00463702
5.88344e-05
0.00461528
5.7557e-05
0.00459375
5.63878e-05
0.00457242
5.53107e-05
0.00455128
5.43123e-05
0.00453033
5.33812e-05
0.00450956
5.25081e-05
0.00448896
5.16853e-05
0.00446852
5.09066e-05
0.00444825
5.01673e-05
0.00442814
4.94635e-05
0.00440817
4.87925e-05
0.00438836
4.81521e-05
0.00436868
4.7541e-05
0.00434914
4.69582e-05
0.00432973
4.64033e-05
0.00431045
4.58761e-05
0.00429129
4.53768e-05
0.00427224
4.49056e-05
0.00425329
4.44631e-05
0.00423445
4.40499e-05
0.00421571
4.3667e-05
0.00419705
4.33151e-05
0.00417846
4.29952e-05
0.00415995
4.27085e-05
0.0041415
4.2456e-05
0.00412309
4.22389e-05
0.00410473
4.20582e-05
0.00408639
4.19149e-05
0.00406807
4.18107e-05
0.00404976
4.17468e-05
0.00403144
4.17247e-05
0.00401309
4.17461e-05
0.0039947
4.18126e-05
0.00397626
4.19259e-05
0.00395775
4.20879e-05
0.00393915
4.23005e-05
0.00392044
4.25657e-05
0.00390161
4.28857e-05
0.00388262
4.32629e-05
0.00386347
4.36996e-05
0.00384412
4.41985e-05
0.00382455
4.47622e-05
0.00380474
4.53935e-05
0.00378466
4.60956e-05
0.00376427
4.68717e-05
0.00374355
4.7725e-05
0.00372247
4.86591e-05
0.00370099
4.96777e-05
0.00367908
5.07848e-05
0.00365669
5.19844e-05
0.00363378
5.32807e-05
0.00361032
5.46782e-05
0.00358626
5.61815e-05
0.00356155
5.77952e-05
0.00353614
5.95243e-05
0.00350998
6.13737e-05
0.003483
6.33486e-05
0.00345516
6.5454e-05
0.00342638
6.76952e-05
0.00339661
7.0077e-05
0.00336576
7.26048e-05
0.00333378
7.52837e-05
0.00330057
7.81188e-05
0.00326607
8.11143e-05
0.00323017
8.42739e-05
0.0031928
8.76009e-05
0.00315386
9.10993e-05
0.00311325
9.47711e-05
0.00307086
9.86172e-05
0.00302659
0.000102637
0.00298032
0.00010683
0.00293195
0.000111191
0.00288135
0.000115715
0.00282839
0.000120395
0.00277295
0.000125218
0.0027149
0.000130172
0.00265412
0.000135237
0.00259048
0.000140393
0.00252384
0.000145611
0.00245409
0.00015086
0.00238111
0.0001561
0.00230479
0.000161287
0.00222505
0.000166369
0.0021418
0.000171284
0.00205499
0.000175963
0.00196461
0.000180329
0.00187066
0.000184292
0.00177321
0.000187754
0.00167238
0.00019061
0.00156834
0.000192749
0.00146136
0.00019405
0.00135178
0.000194389
0.00124008
0.000193638
0.00112684
0.000191674
0.00101281
0.000188381
0.000898861
0.000183663
0.000786054
0.000177454
0.000675583
0.000169724
0.000568746
0.000160497
0.000466876
0.000149862
0.00037123
0.000137989
0.000282892
0.000125125
0.000202705
0.000111597
0.000130786
9.78562e-05
6.71168e-05
8.44349e-05
1.13835e-05
7.17872e-05
-3.6768e-05
6.01769e-05
-7.78912e-05
4.93998e-05
-0.00011196
3.80647e-05
-0.000139374
2.62944e-05
-0.000160458
1.46422e-05
-0.000175605
5.03706e-06
-0.000186117
-1.07089e-07
1.02827e-06
-0.000194044
0.00500634
1.72883e-05
0.00502385
5.09986e-05
0.00504705
8.28133e-05
0.00506939
0.000106042
0.00508908
0.000122185
0.00510686
0.000133475
0.00512444
0.000142246
0.00514265
0.000150359
0.00516109
0.000158279
0.00517926
0.000165296
0.00519683
0.000170995
0.00521369
0.000175294
0.00522986
0.000178315
0.00524537
0.000180259
0.00526018
0.00018128
0.00527419
0.000181424
0.00528727
0.000180697
0.00529931
0.000179103
0.0053102
0.000176661
0.00531986
0.000173428
0.00532821
0.000169473
0.00533522
0.000164877
0.00534083
0.000159733
0.00534505
0.000154151
0.0053479
0.000148246
0.00534943
0.000142135
0.00534969
0.000135934
0.00534877
0.000129752
0.00534678
0.000123688
0.00534381
0.000117825
0.00533997
0.000112233
0.00533537
0.000106962
0.0053301
0.000102048
0.00532427
9.75105e-05
0.00531794
9.33575e-05
0.00531122
8.95812e-05
0.00530416
8.61648e-05
0.00529682
8.30869e-05
0.00528921
8.03201e-05
0.00528138
7.78388e-05
0.00527336
7.56194e-05
0.00526516
7.36376e-05
0.0052568
7.18683e-05
0.00524831
7.02867e-05
0.00523968
6.88691e-05
0.00523092
6.75936e-05
0.00522203
6.64408e-05
0.00521303
6.53935e-05
0.0052039
6.44369e-05
0.00519466
6.35582e-05
0.00518529
6.27465e-05
0.00517581
6.19926e-05
0.0051662
6.12891e-05
0.00515648
6.06298e-05
0.00514664
6.00097e-05
0.00513668
5.94249e-05
0.0051266
5.88726e-05
0.0051164
5.83506e-05
0.00510608
5.78575e-05
0.00509565
5.73922e-05
0.0050851
5.69544e-05
0.00507443
5.6544e-05
0.00506364
5.61613e-05
0.00505274
5.58068e-05
0.00504172
5.54812e-05
0.00503059
5.51856e-05
0.00501933
5.49211e-05
0.00500796
5.46889e-05
0.00499647
5.44905e-05
0.00498485
5.43273e-05
0.0049731
5.4201e-05
0.00496123
5.41134e-05
0.00494922
5.4066e-05
0.00493707
5.40605e-05
0.00492479
5.40989e-05
0.00491235
5.41835e-05
0.00489976
5.43165e-05
0.004887
5.45001e-05
0.00487408
5.47368e-05
0.00486098
5.50292e-05
0.00484768
5.53801e-05
0.00483419
5.57922e-05
0.00482049
5.62687e-05
0.00480656
5.68127e-05
0.0047924
5.74276e-05
0.00477798
5.8117e-05
0.00476329
5.88846e-05
0.00474832
5.97345e-05
0.00473304
6.06709e-05
0.00471744
6.16982e-05
0.00470149
6.28212e-05
0.00468517
6.40448e-05
0.00466846
6.53742e-05
0.00465132
6.6815e-05
0.00463373
6.83729e-05
0.00461566
7.00542e-05
0.00459708
7.18652e-05
0.00457794
7.38125e-05
0.00455822
7.59034e-05
0.00453787
7.8145e-05
0.00451685
8.05451e-05
0.00449511
8.31115e-05
0.00447261
8.58526e-05
0.00444928
8.87768e-05
0.00442509
9.18927e-05
0.00439995
9.52095e-05
0.00437382
9.87363e-05
0.00434662
0.000102482
0.00431829
0.000106457
0.00428873
0.00011067
0.00425787
0.000115131
0.00422563
0.000119847
0.0041919
0.000124829
0.00415659
0.000130084
0.00411958
0.00013562
0.00408078
0.000141444
0.00404005
0.000147561
0.00399726
0.000153975
0.00395229
0.000160688
0.00390498
0.0001677
0.00385519
0.000175009
0.00380276
0.000182609
0.0037475
0.00019049
0.00368926
0.000198639
0.00362783
0.000207037
0.00356303
0.00021566
0.00349465
0.000224477
0.00342249
0.000233448
0.00334633
0.000242527
0.00326596
0.000251656
0.00318116
0.000260767
0.00309171
0.00026978
0.0029974
0.000278601
0.00289803
0.000287118
0.00279344
0.000295203
0.00268346
0.000302728
0.00256797
0.000309539
0.0024469
0.000315462
0.00232023
0.00032031
0.00218802
0.000323881
0.00205044
0.000325963
0.00190777
0.000326332
0.00176045
0.000324769
0.00160911
0.000321065
0.00145458
0.000315027
0.00129797
0.00030647
0.00114072
0.000295237
0.000984631
0.00028122
0.000831817
0.000264411
0.000684744
0.000244929
0.000546084
0.000223095
0.000418401
0.00019947
0.00030374
0.000174838
0.00020319
0.00014995
0.000115796
0.000125458
4.0322e-05
0.000101769
-2.41843e-05
7.91485e-05
-7.77248e-05
5.85775e-05
-0.000119045
4.12133e-05
3.21388e-05
-0.000150156
0.00500365
1.36377e-05
0.00501435
4.03024e-05
0.00503119
6.59747e-05
0.00504934
8.78833e-05
0.00506702
0.000104508
0.00508363
0.000116871
0.00509961
0.000126263
0.00511581
0.000134159
0.00513256
0.000141525
0.00514965
0.000148206
0.00516675
0.000153897
0.00518366
0.000158385
0.0052003
0.00016167
0.00521667
0.00016389
0.00523277
0.000165185
0.00524855
0.000165643
0.00526394
0.000165307
0.00527884
0.000164201
0.00529315
0.000162351
0.00530678
0.000159799
0.00531965
0.000156605
0.00533169
0.00015284
0.00534283
0.000148586
0.00535305
0.000143933
0.00536232
0.000138977
0.00537064
0.000133816
0.00537803
0.000128548
0.00538451
0.000123264
0.00539015
0.000118048
0.005395
0.000112975
0.00539913
0.000108105
0.00540261
0.000103486
0.0054055
9.91534e-05
0.00540788
9.51281e-05
0.00540982
9.14201e-05
0.00541137
8.80283e-05
0.00541259
8.49456e-05
0.00541352
8.21603e-05
0.00541419
7.96539e-05
0.00541462
7.74051e-05
0.00541485
7.5393e-05
0.00541489
7.35971e-05
0.00541476
7.19972e-05
0.00541447
7.05727e-05
0.00541404
6.93038e-05
0.00541346
6.81716e-05
0.00541274
6.71589e-05
0.00541188
6.62502e-05
0.00541089
6.54319e-05
0.00540975
6.46922e-05
0.00540848
6.40208e-05
0.00540706
6.34091e-05
0.0054055
6.28499e-05
0.0054038
6.23369e-05
0.00540194
6.18654e-05
0.00539993
6.14313e-05
0.00539777
6.10316e-05
0.00539546
6.06641e-05
0.00539299
6.03271e-05
0.00539036
6.00196e-05
0.00538758
5.97409e-05
0.00538463
5.94911e-05
0.00538152
5.92702e-05
0.00537825
5.90788e-05
0.00537481
5.89177e-05
0.00537121
5.8788e-05
0.00536744
5.86908e-05
0.0053635
5.86276e-05
0.00535939
5.86e-05
0.00535511
5.86096e-05
0.00535065
5.86583e-05
0.00534602
5.87481e-05
0.0053412
5.88809e-05
0.0053362
5.9059e-05
0.00533102
5.92847e-05
0.00532564
5.95606e-05
0.00532007
5.98892e-05
0.0053143
6.02736e-05
0.00530832
6.07165e-05
0.00530212
6.12213e-05
0.00529571
6.17912e-05
0.00528908
6.24297e-05
0.0052822
6.31406e-05
0.00527509
6.39278e-05
0.00526772
6.47956e-05
0.00526009
6.57482e-05
0.00525218
6.67905e-05
0.00524399
6.79273e-05
0.0052355
6.9164e-05
0.00522669
7.0506e-05
0.00521755
7.19592e-05
0.00520807
7.35298e-05
0.00519822
7.52245e-05
0.00518798
7.705e-05
0.00517734
7.90139e-05
0.00516627
8.11238e-05
0.00515475
8.33878e-05
0.00514275
8.58145e-05
0.00513024
8.8413e-05
0.00511719
9.11927e-05
0.00510357
9.41636e-05
0.00508935
9.73361e-05
0.00507448
0.000100721
0.00505892
0.00010433
0.00504264
0.000108174
0.00502559
0.000112266
0.0050077
0.000116619
0.00498894
0.000121246
0.00496924
0.00012616
0.00494853
0.000131375
0.00492676
0.000136905
0.00490384
0.000142765
0.0048797
0.000148968
0.00485426
0.000155529
0.00482741
0.000162462
0.00479908
0.000169781
0.00476914
0.000177499
0.00473748
0.000185628
0.00470399
0.000194178
0.00466854
0.000203159
0.00463097
0.00021258
0.00459113
0.000222444
0.00454887
0.000232754
0.004504
0.000243508
0.00445633
0.000254702
0.00440567
0.000266325
0.00435179
0.000278359
0.00429445
0.000290781
0.00423342
0.00030356
0.00416842
0.000316653
0.00409918
0.00033001
0.0040254
0.000343564
0.00394676
0.000357237
0.00386294
0.000370934
0.0037736
0.000384543
0.00367839
0.000397939
0.00357696
0.000410974
0.00346894
0.000423477
0.003354
0.000435254
0.00323179
0.000446087
0.00310202
0.000455736
0.00296441
0.000463937
0.00281879
0.000470388
0.00266508
0.000474775
0.0025033
0.000476814
0.00233362
0.000476151
0.00215644
0.000472418
0.00197239
0.000465264
0.00178243
0.000454369
0.00158787
0.000439487
0.00139053
0.000420439
0.00119288
0.000397118
0.000998225
0.000369496
0.000810463
0.000337712
0.000633772
0.000302149
0.000471899
0.000263642
0.000327698
0.00022335
0.000203634
0.000182642
0.000100607
0.00014424
0.000112808
1.9937e-05
0.00500249
1.11482e-05
0.00500982
3.29713e-05
0.00502171
5.40897e-05
0.00503621
7.3379e-05
0.00505142
8.93001e-05
0.00506648
0.00010181
0.00508114
0.000111604
0.00509574
0.00011956
0.00511075
0.00012651
0.0051262
0.00013276
0.00514189
0.000138202
0.00515763
0.000142652
0.00517325
0.000146048
0.0051887
0.000148437
0.00520397
0.000149916
0.00521903
0.000150583
0.00523383
0.000150504
0.00524831
0.000149723
0.00526239
0.000148275
0.00527598
0.000146202
0.00528903
0.000143554
0.00530148
0.000140395
0.00531327
0.000136796
0.00532437
0.000132834
0.00533475
0.000128591
0.00534442
0.000124151
0.00535337
0.000119596
0.00536163
0.000115006
0.00536923
0.000110451
0.0053762
0.000105998
0.00538261
0.000101699
0.0053885
9.75981e-05
0.00539392
9.37284e-05
0.00539894
9.01116e-05
0.0054036
8.67598e-05
0.00540795
8.36771e-05
0.00541204
8.08616e-05
0.00541589
7.83063e-05
0.00541954
7.5999e-05
0.00542303
7.39235e-05
0.00542636
7.20624e-05
0.00542955
7.03987e-05
0.00543264
6.89154e-05
0.00543561
6.75957e-05
0.00543849
6.6423e-05
0.00544128
6.53814e-05
0.00544399
6.44558e-05
0.00544661
6.36324e-05
0.00544914
6.28992e-05
0.00545159
6.22453e-05
0.00545394
6.16612e-05
0.00545621
6.1139e-05
0.00545839
6.06717e-05
0.00546048
6.02534e-05
0.00546246
5.98795e-05
0.00546435
5.95461e-05
0.00546613
5.925e-05
0.0054678
5.8989e-05
0.00546937
5.87613e-05
0.00547082
5.85658e-05
0.00547216
5.84019e-05
0.00547338
5.82693e-05
0.00547449
5.81681e-05
0.00547547
5.80989e-05
0.00547632
5.80625e-05
0.00547705
5.80597e-05
0.00547765
5.80918e-05
0.00547812
5.81604e-05
0.00547845
5.8267e-05
0.00547865
5.84133e-05
0.0054787
5.86014e-05
0.00547862
5.88333e-05
0.00547839
5.91113e-05
0.00547801
5.94377e-05
0.00547748
5.98151e-05
0.00547679
6.02463e-05
0.00547595
6.07342e-05
0.00547494
6.12819e-05
0.00547376
6.18928e-05
0.00547241
6.25703e-05
0.00547089
6.33182e-05
0.00546918
6.41403e-05
0.00546728
6.50409e-05
0.00546518
6.60244e-05
0.00546288
6.70954e-05
0.00546037
6.8259e-05
0.00545764
6.95204e-05
0.00545468
7.08852e-05
0.00545148
7.23593e-05
0.00544804
7.3949e-05
0.00544434
7.56609e-05
0.00544037
7.75022e-05
0.00543611
7.94802e-05
0.00543156
8.16028e-05
0.00542669
8.38785e-05
0.0054215
8.6316e-05
0.00541597
8.89248e-05
0.00541006
9.17147e-05
0.00540378
9.46961e-05
0.00539709
9.788e-05
0.00538998
0.000101278
0.00538241
0.000104902
0.00537437
0.000108765
0.00536582
0.000112881
0.00535673
0.000117263
0.00534707
0.000121926
0.00533681
0.000126886
0.00532589
0.000132158
0.00531429
0.000137759
0.00530196
0.000143707
0.00528885
0.000150019
0.0052749
0.000156713
0.00526006
0.000163808
0.00524426
0.000171324
0.00522745
0.00017928
0.00520953
0.000187694
0.00519045
0.000196587
0.0051701
0.000205978
0.00514839
0.000215885
0.00512522
0.000226326
0.00510048
0.000237319
0.00507405
0.000248878
0.00504578
0.000261017
0.00501555
0.000273747
0.00498317
0.000287076
0.00494849
0.000301008
0.0049113
0.000315543
0.00487141
0.000330674
0.00482858
0.000346388
0.00478257
0.000362666
0.00473311
0.000379476
0.00467989
0.000396779
0.00462261
0.00041452
0.00456091
0.000432634
0.00449441
0.000451037
0.00442272
0.000469632
0.0043454
0.000488297
0.00426198
0.000506893
0.00417199
0.000525252
0.00407489
0.000543182
0.00397017
0.00056046
0.00385727
0.000576833
0.00373565
0.000592011
0.00360474
0.00060568
0.00346406
0.000617502
0.00331312
0.000627085
0.00315154
0.000634004
0.002979
0.000637802
0.00279539
0.000637979
0.00260083
0.000634049
0.00239568
0.000625584
0.00218076
0.000612044
0.00195732
0.000592936
0.00172715
0.000567878
0.00149265
0.000536651
0.00125713
0.000499165
0.00102489
0.00045558
0.000801207
0.000406329
0.000592888
0.000352559
0.000296579
0.000409118
0.00500185
9.29963e-06
0.00500728
2.75381e-05
0.00501604
4.53311e-05
0.00502755
6.18668e-05
0.00504038
7.64679e-05
0.00505372
8.84725e-05
0.00506712
9.82109e-05
0.00508052
0.000106161
0.00509416
0.000112867
0.00510819
0.000118727
0.00512255
0.000123839
0.00513709
0.000128121
0.00515163
0.000131503
0.00516609
0.000133978
0.00518041
0.000135595
0.00519456
0.000136434
0.0052085
0.000136567
0.00522217
0.000136051
0.00523551
0.000134931
0.00524847
0.000133249
0.00526097
0.000131052
0.00527297
0.000128395
0.00528443
0.000125338
0.00529531
0.000121951
0.0053056
0.000118302
0.00531528
0.000114465
0.00532437
0.000110509
0.00533287
0.000106503
0.00534081
0.000102509
0.00534823
9.85832e-05
0.00535515
9.47732e-05
0.00536163
9.11186e-05
0.00536771
8.76499e-05
0.00537343
8.43889e-05
0.00537885
8.13495e-05
0.00538398
7.85389e-05
0.00538889
7.59583e-05
0.00539359
7.36042e-05
0.00539812
7.14684e-05
0.0054025
6.95394e-05
0.00540676
6.78035e-05
0.00541091
6.62468e-05
0.00541497
6.48554e-05
0.00541895
6.36152e-05
0.00542286
6.25125e-05
0.00542671
6.15339e-05
0.0054305
6.06664e-05
0.00543424
5.98981e-05
0.00543792
5.92181e-05
0.00544155
5.86168e-05
0.00544512
5.80855e-05
0.00544864
5.76169e-05
0.00545211
5.72046e-05
0.00545552
5.68432e-05
0.00545887
5.65282e-05
0.00546216
5.62558e-05
0.00546539
5.60231e-05
0.00546855
5.58278e-05
0.00547164
5.56682e-05
0.00547467
5.55433e-05
0.00547762
5.54522e-05
0.00548049
5.53947e-05
0.00548329
5.5371e-05
0.005486
5.53815e-05
0.00548864
5.54269e-05
0.00549119
5.55082e-05
0.00549366
5.56267e-05
0.00549603
5.57838e-05
0.00549832
5.59811e-05
0.00550051
5.62206e-05
0.00550261
5.65041e-05
0.00550461
5.68338e-05
0.00550651
5.72122e-05
0.0055083
5.76417e-05
0.00550999
5.8125e-05
0.00551157
5.86651e-05
0.00551304
5.9265e-05
0.0055144
5.9928e-05
0.00551563
6.06576e-05
0.00551675
6.14576e-05
0.00551773
6.23319e-05
0.00551859
6.32847e-05
0.00551931
6.43204e-05
0.00551989
6.54437e-05
0.00552032
6.66598e-05
0.00552061
6.79738e-05
0.00552074
6.93914e-05
0.00552071
7.09186e-05
0.0055205
7.25618e-05
0.00552012
7.43276e-05
0.00551956
7.62232e-05
0.00551881
7.82562e-05
0.00551785
8.04346e-05
0.00551669
8.27669e-05
0.00551531
8.52621e-05
0.00551369
8.79297e-05
0.00551184
9.07799e-05
0.00550973
9.38233e-05
0.00550735
9.70711e-05
0.0055047
0.000100535
0.00550175
0.000104229
0.00549849
0.000108164
0.00549489
0.000112356
0.00549096
0.000116818
0.00548665
0.000121567
0.00548196
0.000126619
0.00547686
0.00013199
0.00547132
0.000137699
0.00546531
0.000143763
0.00545881
0.000150204
0.00545179
0.00015704
0.00544421
0.000164293
0.00543604
0.000171984
0.00542723
0.000180137
0.00541773
0.000188773
0.00540751
0.000197917
0.0053965
0.000207593
0.00538466
0.000217824
0.00537191
0.000228635
0.00535818
0.000240051
0.0053434
0.000252096
0.00532749
0.000264792
0.00531034
0.000278163
0.00529186
0.000292229
0.00527193
0.00030701
0.00525041
0.000322522
0.00522718
0.000338779
0.00520206
0.00035579
0.00517489
0.000373561
0.00514546
0.00039209
0.00511357
0.000411371
0.00507896
0.000431386
0.00504137
0.000452111
0.0050005
0.000473507
0.00495601
0.000495528
0.00490753
0.000518107
0.00485467
0.000541164
0.00479696
0.000564597
0.00473393
0.000588286
0.00466503
0.00061208
0.00458968
0.000635806
0.00450726
0.000659255
0.00441708
0.000682189
0.00431843
0.000704334
0.00421056
0.000725374
0.00409269
0.00074495
0.00396404
0.000762653
0.00382382
0.000778024
0.00367125
0.000790547
0.00350562
0.000799679
0.00332637
0.000804832
0.00313306
0.000805358
0.00292544
0.000800553
0.00270363
0.000789686
0.0024681
0.000772188
0.00221986
0.000747406
0.00196069
0.000714749
0.0016931
0.000673914
0.00142061
0.000625052
0.000568838
0.00114835
0.00500144
7.86071e-06
0.00500568
2.33016e-05
0.00501255
3.84533e-05
0.00502174
5.26789e-05
0.00503257
6.56434e-05
0.00504425
7.67909e-05
0.00505635
8.61068e-05
0.00506867
9.38397e-05
0.00508122
0.000100318
0.00509409
0.000105856
0.00510729
0.000110636
0.00512073
0.000114682
0.00513428
0.000117955
0.00514783
0.000120431
0.00516129
0.00012213
0.00517463
0.000123102
0.00518778
0.000123412
0.00520071
0.00012312
0.00521337
0.000122277
0.00522569
0.000120927
0.00523762
0.000119115
0.00524913
0.000116888
0.00526017
0.000114301
0.00527071
0.000111411
0.00528073
0.000108279
0.00529023
0.000104967
0.00529921
0.000101536
0.00530766
9.80445e-05
0.00531563
9.4547e-05
0.00532312
9.10921e-05
0.00533017
8.77223e-05
0.00533681
8.44732e-05
0.00534309
8.13729e-05
0.00534904
7.84428e-05
0.00535469
7.56976e-05
0.00536008
7.31457e-05
0.00536525
7.07908e-05
0.00537022
6.86319e-05
0.00537503
6.66638e-05
0.00537969
6.48785e-05
0.00538422
6.32659e-05
0.00538866
6.1815e-05
0.005393
6.05143e-05
0.00539726
5.93524e-05
0.00540146
5.83176e-05
0.00540559
5.73988e-05
0.00540967
5.6585e-05
0.0054137
5.58659e-05
0.00541769
5.52319e-05
0.00542163
5.46745e-05
0.00542553
5.41859e-05
0.00542939
5.37596e-05
0.0054332
5.33897e-05
0.00543698
5.30711e-05
0.0054407
5.27998e-05
0.00544439
5.25723e-05
0.00544802
5.23858e-05
0.00545161
5.22382e-05
0.00545515
5.21278e-05
0.00545864
5.20535e-05
0.00546208
5.20148e-05
0.00546547
5.20113e-05
0.00546879
5.20432e-05
0.00547206
5.21108e-05
0.00547528
5.22151e-05
0.00547843
5.23569e-05
0.00548152
5.25374e-05
0.00548454
5.27583e-05
0.0054875
5.3021e-05
0.00549039
5.33276e-05
0.00549322
5.368e-05
0.00549597
5.40805e-05
0.00549865
5.45315e-05
0.00550126
5.50357e-05
0.00550379
5.55958e-05
0.00550624
5.62148e-05
0.00550861
5.6896e-05
0.00551089
5.76427e-05
0.00551309
5.84586e-05
0.0055152
5.93475e-05
0.00551722
6.03136e-05
0.00551914
6.13613e-05
0.00552097
6.24951e-05
0.00552269
6.37199e-05
0.00552431
6.5041e-05
0.00552582
6.64639e-05
0.00552722
6.79945e-05
0.0055285
6.9639e-05
0.00552966
7.1404e-05
0.00553069
7.32965e-05
0.00553159
7.5324e-05
0.00553235
7.74943e-05
0.00553297
7.98157e-05
0.00553344
8.22973e-05
0.00553375
8.49482e-05
0.0055339
8.77784e-05
0.00553388
9.07986e-05
0.00553369
9.40197e-05
0.0055333
9.74536e-05
0.00553273
0.000101113
0.00553194
0.00010501
0.00553095
0.00010916
0.00552973
0.000113576
0.00552827
0.000118275
0.00552657
0.000123273
0.0055246
0.000128585
0.00552236
0.000134232
0.00551982
0.000140231
0.00551699
0.000146602
0.00551382
0.000153367
0.00551032
0.000160545
0.00550645
0.000168161
0.0055022
0.000176237
0.00549753
0.000184799
0.00549244
0.00019387
0.00548688
0.000203477
0.00548082
0.000213648
0.00547424
0.000224409
0.00546708
0.000235788
0.00545932
0.000247813
0.0054509
0.000260515
0.00544178
0.00027392
0.00543188
0.000288058
0.00542115
0.000302957
0.00540952
0.000318643
0.0053969
0.000335143
0.0053832
0.000352481
0.00536831
0.000370678
0.00535212
0.000389754
0.00533448
0.000409722
0.00531526
0.000430593
0.00529427
0.000452373
0.00527133
0.000475058
0.0052462
0.000498639
0.00521863
0.000523094
0.00518834
0.000548396
0.00515501
0.000574497
0.00511826
0.000601341
0.0050777
0.000628847
0.00503286
0.000656923
0.00498322
0.000685443
0.00492821
0.000714266
0.0048672
0.000743208
0.00479946
0.000772066
0.00472425
0.000800583
0.00464073