/*--------------------------------*- C++ -*----------------------------------*\
| =========                 |                                                 |
| \\      /  F ield         | OpenFOAM: The Open Source CFD Toolbox           |
|  \\    /   O peration     | Version:  2306                                  |
|   \\  /    A nd           | Website:  www.openfoam.com                      |
|    \\/     M anipulation  |                                                 |
\*---------------------------------------------------------------------------*/
FoamFile
{
    version     2.0;
    format      ascii;
    arch        "LSB;label=32;scalar=64";
    class       volVectorField;
    location    "0.15";
    object      U;
}
// * * * * * * * * * * * * * * * * * * * * * * * * * * * * * * * * * * * * * //

dimensions      [0 1 -1 0 0 0 0];

internalField   nonuniform List<vector> 
17600
(
(9.80708 0.0850068 0)
(9.62283 0.1805 0)
(9.41196 0.217949 0)
(9.14629 0.225578 0)
(8.83439 0.225099 0)
(8.49837 0.225384 0)
(8.15617 0.226735 0)
(7.81673 0.227127 0)
(7.48271 0.225217 0)
(7.15417 0.220816 0)
(6.8307 0.214445 0)
(6.51246 0.206749 0)
(6.2003 0.198156 0)
(5.89556 0.188847 0)
(5.59972 0.178841 0)
(5.31432 0.168122 0)
(5.04067 0.156689 0)
(4.78022 0.144604 0)
(4.53384 0.131884 0)
(4.30233 0.118617 0)
(4.08635 0.104986 0)
(3.88638 0.0912468 0)
(3.7027 0.077692 0)
(3.53535 0.0646155 0)
(3.38407 0.0522869 0)
(3.24838 0.0409321 0)
(3.12755 0.0307205 0)
(3.02067 0.0217581 0)
(2.92669 0.0140874 0)
(2.84446 0.00769379 0)
(2.77278 0.0025168 0)
(2.71046 -0.00153778 0)
(2.6563 -0.0045839 0)
(2.60919 -0.00674615 0)
(2.56807 -0.00814712 0)
(2.53198 -0.00890867 0)
(2.50007 -0.00914033 0)
(2.47159 -0.00897273 0)
(2.44593 -0.00852703 0)
(2.42255 -0.00789717 0)
(2.401 -0.0071523 0)
(2.38088 -0.00634365 0)
(2.36188 -0.00550965 0)
(2.34374 -0.00467882 0)
(2.32625 -0.00387183 0)
(2.30927 -0.00310308 0)
(2.29266 -0.00238219 0)
(2.27634 -0.00171515 0)
(2.26025 -0.0011051 0)
(2.24432 -0.000552986 0)
(2.22854 -5.80031e-05 0)
(2.21288 0.000382011 0)
(2.19734 0.000770209 0)
(2.18189 0.00111041 0)
(2.16655 0.00140682 0)
(2.15131 0.00166381 0)
(2.13618 0.00188573 0)
(2.12116 0.00207682 0)
(2.10625 0.00224108 0)
(2.09144 0.00238227 0)
(2.07676 0.00250383 0)
(2.06218 0.00260893 0)
(2.04772 0.00270039 0)
(2.03336 0.00278075 0)
(2.0191 0.00285229 0)
(2.00494 0.00291701 0)
(1.99087 0.00297665 0)
(1.97688 0.00303277 0)
(1.96296 0.00308674 0)
(1.9491 0.00313971 0)
(1.93529 0.00319272 0)
(1.92151 0.0032466 0)
(1.90774 0.00330206 0)
(1.89399 0.00335975 0)
(1.88022 0.0034203 0)
(1.86642 0.00348429 0)
(1.85258 0.0035523 0)
(1.83868 0.00362483 0)
(1.82469 0.00370235 0)
(1.8106 0.00378526 0)
(1.79639 0.00387396 0)
(1.78203 0.00396879 0)
(1.76751 0.00407009 0)
(1.7528 0.00417817 0)
(1.73787 0.00429333 0)
(1.72271 0.00441585 0)
(1.70728 0.00454599 0)
(1.69156 0.00468399 0)
(1.67553 0.00483007 0)
(1.65915 0.00498443 0)
(1.6424 0.00514725 0)
(1.62524 0.00531866 0)
(1.60764 0.00549878 0)
(1.58958 0.00568768 0)
(1.57102 0.00588536 0)
(1.55191 0.00609177 0)
(1.53224 0.00630678 0)
(1.51196 0.00653019 0)
(1.49104 0.00676168 0)
(1.46943 0.0070008 0)
(1.4471 0.00724697 0)
(1.42401 0.00749943 0)
(1.40013 0.00775724 0)
(1.3754 0.00801917 0)
(1.34979 0.00828376 0)
(1.32327 0.00854925 0)
(1.29579 0.00881381 0)
(1.26732 0.00907573 0)
(1.23781 0.00933297 0)
(1.20725 0.00958306 0)
(1.17559 0.00982303 0)
(1.1428 0.0100496 0)
(1.10888 0.0102593 0)
(1.07378 0.0104478 0)
(1.03752 0.0106105 0)
(1.00007 0.0107418 0)
(0.96145 0.010836 0)
(0.921667 0.0108865 0)
(0.880749 0.0108867 0)
(0.838734 0.0108298 0)
(0.795676 0.010709 0)
(0.751643 0.0105175 0)
(0.706722 0.0102494 0)
(0.661018 0.00989977 0)
(0.614655 0.0094652 0)
(0.567778 0.00894446 0)
(0.520553 0.00833924 0)
(0.473164 0.00765491 0)
(0.425814 0.00690131 0)
(0.378724 0.00609344 0)
(0.332126 0.00525193 0)
(0.286263 0.00440302 0)
(0.241379 0.0035777 0)
(0.197722 0.00280964 0)
(0.155528 0.00213172 0)
(0.115028 0.00157097 0)
(0.0764332 0.00114277 0)
(0.0399426 0.000844998 0)
(0.0057464 0.000656876 0)
(-0.0259438 0.000529689 0)
(-0.0549566 0.000360502 0)
(-0.0811616 8.27291e-05 0)
(-0.104398 -0.000365411 0)
(-0.124577 -0.00100347 0)
(-0.141703 -0.00178943 0)
(-0.155889 -0.00262173 0)
(-0.167333 -0.00336263 0)
(-0.176261 -0.00388592 0)
(-0.182878 -0.00416556 0)
(-0.187261 -0.00432729 0)
(-0.189475 -0.00436624 0)
(-0.189727 -0.00425219 0)
(-0.188417 -0.0039492 0)
(-0.185914 -0.00360626 0)
(-0.18192 -0.00364569 0)
(-0.17551 -0.00436171 0)
(-0.165927 -0.00553809 0)
(-0.153521 -0.00641235 0)
(-0.140147 -0.00627382 0)
(-0.128815 -0.00469568 0)
(10.0008 0.122279 0)
(10.0676 0.272136 0)
(10.1383 0.34232 0)
(10.1915 0.367551 0)
(10.2161 0.377241 0)
(10.2123 0.385766 0)
(10.1866 0.395779 0)
(10.1458 0.405216 0)
(10.094 0.411963 0)
(10.033 0.415271 0)
(9.96333 0.415453 0)
(9.88495 0.413199 0)
(9.79812 0.40906 0)
(9.7035 0.403313 0)
(9.60191 0.396003 0)
(9.49439 0.387085 0)
(9.38185 0.376493 0)
(9.26531 0.364215 0)
(9.14552 0.35027 0)
(9.02333 0.334758 0)
(8.89958 0.31786 0)
(8.77509 0.299828 0)
(8.65063 0.280958 0)
(8.52692 0.26157 0)
(8.40461 0.241991 0)
(8.28428 0.222543 0)
(8.16642 0.203527 0)
(8.05147 0.18521 0)
(7.93975 0.167816 0)
(7.83157 0.151519 0)
(7.72707 0.13644 0)
(7.6264 0.122653 0)
(7.52958 0.110179 0)
(7.43663 0.0990085 0)
(7.34745 0.0890898 0)
(7.26197 0.0803574 0)
(7.17998 0.0727211 0)
(7.10134 0.0661015 0)
(7.02589 0.060419 0)
(6.95346 0.0555846 0)
(6.88389 0.0515012 0)
(6.81699 0.0480685 0)
(6.75258 0.0451895 0)
(6.69049 0.042775 0)
(6.63057 0.0407461 0)
(6.57265 0.0390349 0)
(6.51659 0.0375839 0)
(6.46227 0.036345 0)
(6.40957 0.035278 0)
(6.35838 0.0343497 0)
(6.30858 0.033533 0)
(6.26011 0.0328061 0)
(6.21286 0.0321513 0)
(6.16677 0.0315549 0)
(6.12176 0.0310062 0)
(6.07778 0.030497 0)
(6.03475 0.0300213 0)
(5.99263 0.0295747 0)
(5.95136 0.029154 0)
(5.91089 0.0287573 0)
(5.87118 0.0283834 0)
(5.83218 0.0280315 0)
(5.79386 0.0277017 0)
(5.75616 0.0273941 0)
(5.71905 0.0271093 0)
(5.68249 0.0268479 0)
(5.64645 0.0266109 0)
(5.61088 0.0263991 0)
(5.57574 0.0262135 0)
(5.54101 0.0260552 0)
(5.50664 0.0259251 0)
(5.47259 0.0258245 0)
(5.43884 0.0257542 0)
(5.40533 0.0257152 0)
(5.37204 0.0257085 0)
(5.33892 0.0257353 0)
(5.30594 0.0257964 0)
(5.27306 0.0258932 0)
(5.24024 0.0260267 0)
(5.20743 0.0261982 0)
(5.17459 0.0264088 0)
(5.14169 0.02666 0)
(5.10867 0.0269532 0)
(5.07549 0.0272897 0)
(5.0421 0.0276711 0)
(5.00845 0.0280991 0)
(4.9745 0.0285752 0)
(4.94019 0.0291013 0)
(4.90547 0.0296793 0)
(4.87027 0.0303109 0)
(4.83455 0.0309982 0)
(4.79823 0.0317433 0)
(4.76126 0.0325483 0)
(4.72358 0.0334154 0)
(4.6851 0.0343467 0)
(4.64576 0.0353446 0)
(4.60549 0.0364114 0)
(4.5642 0.0375492 0)
(4.52181 0.0387604 0)
(4.47825 0.0400471 0)
(4.43341 0.0414114 0)
(4.38721 0.0428552 0)
(4.33955 0.0443804 0)
(4.29033 0.0459883 0)
(4.23944 0.0476802 0)
(4.18678 0.0494566 0)
(4.13224 0.0513178 0)
(4.07569 0.0532624 0)
(4.01703 0.0552887 0)
(3.95612 0.0573938 0)
(3.89284 0.0595737 0)
(3.82706 0.0618237 0)
(3.75865 0.0641371 0)
(3.68747 0.0665062 0)
(3.6134 0.0689212 0)
(3.5363 0.0713703 0)
(3.45603 0.0738395 0)
(3.37247 0.0763119 0)
(3.28551 0.0787679 0)
(3.19501 0.0811848 0)
(3.10089 0.0835363 0)
(3.00304 0.0857927 0)
(2.90139 0.0879207 0)
(2.7959 0.089883 0)
(2.68654 0.0916387 0)
(2.57332 0.0931438 0)
(2.45629 0.0943509 0)
(2.33554 0.0952107 0)
(2.21123 0.0956723 0)
(2.08356 0.0956851 0)
(1.95285 0.0952 0)
(1.81946 0.0941712 0)
(1.68386 0.0925594 0)
(1.54665 0.0903339 0)
(1.40849 0.0874776 0)
(1.2702 0.0839884 0)
(1.13268 0.0798827 0)
(0.996917 0.0751945 0)
(0.863975 0.0699823 0)
(0.734928 0.0643539 0)
(0.610861 0.0584021 0)
(0.492733 0.0522895 0)
(0.381389 0.0462036 0)
(0.277517 0.0403355 0)
(0.181625 0.0348453 0)
(0.0940746 0.0298038 0)
(0.015123 0.0251418 0)
(-0.0551187 0.0206544 0)
(-0.116794 0.016139 0)
(-0.169668 0.0116167 0)
(-0.213943 0.00716434 0)
(-0.250279 0.00317256 0)
(-0.279558 -0.000152877 0)
(-0.302581 -0.00317172 0)
(-0.319026 -0.0070645 0)
(-0.328111 -0.0122559 0)
(-0.329538 -0.0176265 0)
(-0.324373 -0.0209667 0)
(-0.315553 -0.020108 0)
(-0.307606 -0.0137717 0)
(10.0003 0.061412 0)
(10.0359 0.160322 0)
(10.0898 0.227821 0)
(10.1516 0.268449 0)
(10.2101 0.293282 0)
(10.2592 0.312147 0)
(10.2981 0.330007 0)
(10.3293 0.347473 0)
(10.3556 0.363358 0)
(10.3789 0.376562 0)
(10.3993 0.386689 0)
(10.4165 0.393916 0)
(10.4298 0.398628 0)
(10.4388 0.401133 0)
(10.4434 0.401574 0)
(10.4435 0.399959 0)
(10.4391 0.396249 0)
(10.4304 0.390421 0)
(10.4174 0.382537 0)
(10.4001 0.372727 0)
(10.3788 0.361174 0)
(10.3537 0.348114 0)
(10.3248 0.333814 0)
(10.2926 0.318573 0)
(10.2572 0.302703 0)
(10.2191 0.286517 0)
(10.1785 0.270317 0)
(10.1358 0.25438 0)
(10.0913 0.238946 0)
(10.0455 0.224212 0)
(9.99865 0.210323 0)
(9.95104 0.197381 0)
(9.90293 0.185438 0)
(9.85457 0.174511 0)
(9.80614 0.164577 0)
(9.75783 0.1556 0)
(9.70971 0.147518 0)
(9.66192 0.140279 0)
(9.61455 0.133827 0)
(9.56762 0.128098 0)
(9.52116 0.123015 0)
(9.47516 0.118502 0)
(9.42964 0.11448 0)
(9.38459 0.110877 0)
(9.34 0.10763 0)
(9.29586 0.104683 0)
(9.25216 0.101989 0)
(9.20889 0.0995112 0)
(9.16603 0.0972155 0)
(9.12356 0.0950756 0)
(9.08147 0.0930695 0)
(9.03975 0.0911791 0)
(8.99838 0.08939 0)
(8.95736 0.0876908 0)
(8.91666 0.0860724 0)
(8.87628 0.0845281 0)
(8.83621 0.0830525 0)
(8.79643 0.0816421 0)
(8.75694 0.080294 0)
(8.71773 0.0790067 0)
(8.67879 0.077779 0)
(8.6401 0.0766105 0)
(8.60166 0.0755012 0)
(8.56345 0.0744515 0)
(8.52546 0.0734619 0)
(8.48768 0.0725333 0)
(8.4501 0.0716667 0)
(8.4127 0.0708633 0)
(8.37546 0.0701243 0)
(8.33836 0.0694511 0)
(8.3014 0.0688453 0)
(8.26455 0.0683083 0)
(8.22779 0.067842 0)
(8.19109 0.0674483 0)
(8.15445 0.067129 0)
(8.11782 0.066886 0)
(8.08119 0.0667215 0)
(8.04452 0.0666376 0)
(8.00779 0.0666366 0)
(7.97097 0.0667207 0)
(7.93403 0.0668927 0)
(7.89693 0.0671552 0)
(7.85963 0.0675111 0)
(7.82209 0.0679636 0)
(7.78428 0.0685159 0)
(7.74615 0.0691717 0)
(7.70766 0.0699346 0)
(7.66876 0.0708089 0)
(7.62939 0.0717986 0)
(7.58951 0.0729085 0)
(7.54905 0.0741432 0)
(7.50796 0.075508 0)
(7.46618 0.0770082 0)
(7.42363 0.0786493 0)
(7.38025 0.0804375 0)
(7.33596 0.0823789 0)
(7.29069 0.08448 0)
(7.24435 0.0867476 0)
(7.19685 0.0891886 0)
(7.1481 0.0918104 0)
(7.098 0.0946202 0)
(7.04645 0.0976258 0)
(6.99334 0.100835 0)
(6.93855 0.104255 0)
(6.88197 0.107894 0)
(6.82345 0.111759 0)
(6.76287 0.115859 0)
(6.70008 0.120197 0)
(6.63494 0.124782 0)
(6.56727 0.129617 0)
(6.49692 0.134707 0)
(6.4237 0.140054 0)
(6.34744 0.145658 0)
(6.26794 0.151519 0)
(6.185 0.157634 0)
(6.09841 0.163995 0)
(6.00794 0.170594 0)
(5.91337 0.177417 0)
(5.81446 0.184448 0)
(5.71097 0.191665 0)
(5.60266 0.199039 0)
(5.48926 0.206535 0)
(5.37051 0.214113 0)
(5.24617 0.221721 0)
(5.11597 0.2293 0)
(4.97966 0.23678 0)
(4.83701 0.244078 0)
(4.68778 0.251102 0)
(4.53179 0.257742 0)
(4.36885 0.263876 0)
(4.19883 0.269366 0)
(4.02167 0.274058 0)
(3.83733 0.277782 0)
(3.64591 0.280352 0)
(3.44756 0.28157 0)
(3.24257 0.281233 0)
(3.0314 0.27914 0)
(2.81462 0.275102 0)
(2.59307 0.268952 0)
(2.36778 0.260572 0)
(2.14007 0.249902 0)
(1.91157 0.236976 0)
(1.68421 0.221936 0)
(1.46024 0.205038 0)
(1.24217 0.186656 0)
(1.03271 0.167247 0)
(0.834513 0.147332 0)
(0.650042 0.127468 0)
(0.481221 0.108236 0)
(0.329222 0.09051 0)
(0.193921 0.0749184 0)
(0.0747309 0.0616166 0)
(-0.0291427 0.0497697 0)
(-0.118748 0.0377385 0)
(-0.19375 0.0240749 0)
(-0.254682 0.00826957 0)
(-0.302679 -0.00729531 0)
(-0.338512 -0.0187592 0)
(-0.363288 -0.0222077 0)
(-0.380245 -0.0139479 0)
(10.0002 0.0417809 0)
(10.0198 0.117275 0)
(10.0537 0.178914 0)
(10.0983 0.2245 0)
(10.1468 0.256566 0)
(10.1935 0.280044 0)
(10.2356 0.299303 0)
(10.2732 0.316677 0)
(10.3082 0.33255 0)
(10.3422 0.346417 0)
(10.376 0.357788 0)
(10.4097 0.366528 0)
(10.4428 0.372793 0)
(10.4749 0.376835 0)
(10.5055 0.378854 0)
(10.5345 0.378946 0)
(10.5616 0.37715 0)
(10.5867 0.373495 0)
(10.6096 0.368044 0)
(10.6302 0.360906 0)
(10.6482 0.352228 0)
(10.6637 0.342191 0)
(10.6764 0.331007 0)
(10.6864 0.318912 0)
(10.6936 0.306154 0)
(10.6981 0.292987 0)
(10.7 0.279659 0)
(10.6994 0.266399 0)
(10.6965 0.253413 0)
(10.6916 0.240876 0)
(10.6847 0.228927 0)
(10.6762 0.217669 0)
(10.6663 0.207173 0)
(10.6551 0.197477 0)
(10.6429 0.188594 0)
(10.6297 0.180514 0)
(10.6159 0.173213 0)
(10.6013 0.166644 0)
(10.5863 0.160747 0)
(10.5708 0.15546 0)
(10.5549 0.150721 0)
(10.5387 0.146472 0)
(10.5221 0.142657 0)
(10.5052 0.139222 0)
(10.4881 0.136119 0)
(10.4707 0.133305 0)
(10.453 0.130741 0)
(10.4351 0.128393 0)
(10.417 0.126231 0)
(10.3986 0.12423 0)
(10.38 0.122367 0)
(10.3611 0.120625 0)
(10.342 0.118988 0)
(10.3227 0.117443 0)
(10.3031 0.11598 0)
(10.2833 0.114591 0)
(10.2633 0.113271 0)
(10.243 0.112013 0)
(10.2225 0.110815 0)
(10.2018 0.109675 0)
(10.1808 0.108591 0)
(10.1596 0.107563 0)
(10.1381 0.106591 0)
(10.1164 0.105675 0)
(10.0945 0.104818 0)
(10.0724 0.104019 0)
(10.05 0.103282 0)
(10.0273 0.102608 0)
(10.0045 0.101999 0)
(9.98136 0.101459 0)
(9.958 0.10099 0)
(9.93438 0.100594 0)
(9.9105 0.100276 0)
(9.88635 0.100038 0)
(9.86191 0.0998842 0)
(9.83719 0.0998186 0)
(9.81217 0.0998448 0)
(9.78682 0.099967 0)
(9.76115 0.100189 0)
(9.73512 0.100516 0)
(9.70873 0.100953 0)
(9.68195 0.101503 0)
(9.65476 0.102173 0)
(9.62714 0.102968 0)
(9.59905 0.103893 0)
(9.57048 0.104955 0)
(9.54138 0.106161 0)
(9.51173 0.107516 0)
(9.48149 0.109029 0)
(9.45062 0.110706 0)
(9.41907 0.112557 0)
(9.38681 0.114588 0)
(9.35379 0.116811 0)
(9.31995 0.119232 0)
(9.28524 0.121864 0)
(9.2496 0.124715 0)
(9.21296 0.127797 0)
(9.17525 0.131121 0)
(9.13642 0.134699 0)
(9.09636 0.138544 0)
(9.05502 0.142668 0)
(9.01228 0.147085 0)
(8.96806 0.151808 0)
(8.92226 0.156851 0)
(8.87477 0.16223 0)
(8.82547 0.167958 0)
(8.77424 0.17405 0)
(8.72095 0.180522 0)
(8.66545 0.187389 0)
(8.6076 0.194664 0)
(8.54723 0.202363 0)
(8.48418 0.210499 0)
(8.41825 0.219084 0)
(8.34927 0.228129 0)
(8.27702 0.237642 0)
(8.20127 0.247631 0)
(8.1218 0.2581 0)
(8.03837 0.269051 0)
(7.95069 0.280479 0)
(7.8585 0.292379 0)
(7.76149 0.304736 0)
(7.65936 0.317531 0)
(7.55178 0.330737 0)
(7.43839 0.344317 0)
(7.31883 0.358226 0)
(7.19272 0.372405 0)
(7.05967 0.386784 0)
(6.91926 0.401275 0)
(6.77107 0.415775 0)
(6.61467 0.430164 0)
(6.44963 0.444297 0)
(6.2755 0.458009 0)
(6.09187 0.471109 0)
(5.89831 0.483381 0)
(5.69445 0.494578 0)
(5.47995 0.504421 0)
(5.25453 0.512598 0)
(5.01799 0.518774 0)
(4.77022 0.522585 0)
(4.51127 0.523651 0)
(4.24134 0.521574 0)
(3.96088 0.51595 0)
(3.6706 0.506379 0)
(3.37155 0.49249 0)
(3.06516 0.473985 0)
(2.75337 0.450679 0)
(2.43869 0.422568 0)
(2.12432 0.389907 0)
(1.81417 0.353294 0)
(1.51291 0.313679 0)
(1.22571 0.272531 0)
(0.957975 0.231658 0)
(0.714664 0.192933 0)
(0.499081 0.157351 0)
(0.312085 0.125182 0)
(0.150536 0.0950966 0)
(0.0109799 0.0662393 0)
(-0.107488 0.0401418 0)
(-0.201673 0.0220364 0)
(-0.272652 0.0187991 0)
(10.0001 0.0316624 0)
(10.0128 0.0917399 0)
(10.036 0.145035 0)
(10.0682 0.188695 0)
(10.1059 0.222278 0)
(10.1451 0.247713 0)
(10.183 0.267807 0)
(10.2183 0.28486 0)
(10.2518 0.299971 0)
(10.2843 0.313271 0)
(10.3169 0.324504 0)
(10.3498 0.333458 0)
(10.383 0.340116 0)
(10.4162 0.344615 0)
(10.449 0.347133 0)
(10.4811 0.34782 0)
(10.5124 0.346779 0)
(10.5427 0.344087 0)
(10.5719 0.339824 0)
(10.5999 0.334088 0)
(10.6264 0.327008 0)
(10.6514 0.318739 0)
(10.6747 0.309457 0)
(10.6962 0.299361 0)
(10.7158 0.288655 0)
(10.7335 0.277553 0)
(10.7493 0.266259 0)
(10.7633 0.254967 0)
(10.7754 0.243854 0)
(10.7859 0.23307 0)
(10.7949 0.222739 0)
(10.8025 0.21296 0)
(10.8088 0.2038 0)
(10.814 0.195303 0)
(10.8183 0.187492 0)
(10.8217 0.180364 0)
(10.8244 0.173903 0)
(10.8265 0.168074 0)
(10.828 0.16283 0)
(10.8291 0.158123 0)
(10.8297 0.153905 0)
(10.8299 0.15013 0)
(10.8298 0.146756 0)
(10.8294 0.143739 0)
(10.8286 0.141041 0)
(10.8276 0.138622 0)
(10.8263 0.136447 0)
(10.8247 0.134486 0)
(10.8228 0.132709 0)
(10.8207 0.131093 0)
(10.8183 0.129615 0)
(10.8156 0.128258 0)
(10.8126 0.127006 0)
(10.8093 0.125846 0)
(10.8058 0.124769 0)
(10.8019 0.123765 0)
(10.7978 0.122828 0)
(10.7933 0.121954 0)
(10.7885 0.121138 0)
(10.7834 0.120379 0)
(10.778 0.119674 0)
(10.7723 0.119025 0)
(10.7662 0.11843 0)
(10.7598 0.117892 0)
(10.7531 0.11741 0)
(10.7461 0.116988 0)
(10.7387 0.116627 0)
(10.731 0.116331 0)
(10.723 0.116101 0)
(10.7146 0.115941 0)
(10.7058 0.115856 0)
(10.6967 0.115847 0)
(10.6873 0.11592 0)
(10.6775 0.116079 0)
(10.6673 0.116328 0)
(10.6567 0.116672 0)
(10.6458 0.117116 0)
(10.6344 0.117666 0)
(10.6227 0.118326 0)
(10.6105 0.119103 0)
(10.5979 0.120003 0)
(10.5849 0.121032 0)
(10.5714 0.122197 0)
(10.5574 0.123506 0)
(10.5429 0.124966 0)
(10.5279 0.126585 0)
(10.5124 0.128372 0)
(10.4963 0.130337 0)
(10.4796 0.132487 0)
(10.4623 0.134834 0)
(10.4444 0.137389 0)
(10.4258 0.140161 0)
(10.4064 0.143165 0)
(10.3864 0.146411 0)
(10.3655 0.149914 0)
(10.3438 0.153687 0)
(10.3212 0.157745 0)
(10.2977 0.162103 0)
(10.2732 0.166778 0)
(10.2477 0.171786 0)
(10.221 0.177146 0)
(10.1932 0.182876 0)
(10.1641 0.188994 0)
(10.1337 0.195522 0)
(10.1019 0.20248 0)
(10.0686 0.209889 0)
(10.0337 0.217771 0)
(9.99705 0.226151 0)
(9.95861 0.235049 0)
(9.91824 0.244491 0)
(9.8758 0.2545 0)
(9.83115 0.265099 0)
(9.78413 0.276313 0)
(9.7346 0.288164 0)
(9.68236 0.300674 0)
(9.62724 0.313866 0)
(9.56902 0.327757 0)
(9.5075 0.342366 0)
(9.44243 0.357706 0)
(9.37356 0.373789 0)
(9.30061 0.39062 0)
(9.2233 0.408202 0)
(9.1413 0.426529 0)
(9.05428 0.445587 0)
(8.96186 0.465356 0)
(8.86365 0.485803 0)
(8.75924 0.506883 0)
(8.64816 0.528536 0)
(8.52995 0.550689 0)
(8.40407 0.573246 0)
(8.27 0.596092 0)
(8.12714 0.619088 0)
(7.9749 0.642067 0)
(7.81263 0.664832 0)
(7.63966 0.687154 0)
(7.45529 0.708762 0)
(7.25884 0.729344 0)
(7.04956 0.748543 0)
(6.82677 0.765964 0)
(6.58978 0.781162 0)
(6.33794 0.793654 0)
(6.07067 0.802908 0)
(5.78753 0.808361 0)
(5.48822 0.809405 0)
(5.17266 0.805413 0)
(4.84102 0.795728 0)
(4.49386 0.77973 0)
(4.13216 0.75681 0)
(3.75751 0.726452 0)
(3.37217 0.68825 0)
(2.97925 0.642068 0)
(2.58289 0.588131 0)
(2.18867 0.52725 0)
(1.80367 0.460953 0)
(1.43661 0.391483 0)
(1.09627 0.321772 0)
(0.789363 0.25426 0)
(0.520866 0.191019 0)
(0.294697 0.138666 0)
(0.110883 0.107715 0)
(10.0001 0.0253323 0)
(10.0092 0.0742916 0)
(10.0261 0.119437 0)
(10.0502 0.158585 0)
(10.0797 0.190691 0)
(10.1121 0.216186 0)
(10.1451 0.236523 0)
(10.1773 0.253345 0)
(10.2083 0.267834 0)
(10.2386 0.280488 0)
(10.2688 0.291316 0)
(10.2993 0.300169 0)
(10.3301 0.306961 0)
(10.3612 0.311732 0)
(10.3921 0.31461 0)
(10.4227 0.31575 0)
(10.4527 0.315285 0)
(10.482 0.313324 0)
(10.5106 0.30996 0)
(10.5383 0.305292 0)
(10.565 0.299431 0)
(10.5905 0.292512 0)
(10.6148 0.284686 0)
(10.6378 0.276121 0)
(10.6594 0.266991 0)
(10.6796 0.257477 0)
(10.6983 0.247755 0)
(10.7155 0.237991 0)
(10.7315 0.228336 0)
(10.746 0.218923 0)
(10.7594 0.209865 0)
(10.7717 0.201249 0)
(10.783 0.193142 0)
(10.7934 0.185587 0)
(10.803 0.178609 0)
(10.812 0.172212 0)
(10.8204 0.166386 0)
(10.8282 0.161108 0)
(10.8357 0.156345 0)
(10.8428 0.152062 0)
(10.8496 0.148221 0)
(10.8561 0.144787 0)
(10.8623 0.141724 0)
(10.8684 0.138997 0)
(10.8742 0.136572 0)
(10.8798 0.134414 0)
(10.8853 0.132494 0)
(10.8906 0.130781 0)
(10.8958 0.129252 0)
(10.9008 0.127881 0)
(10.9056 0.126651 0)
(10.9102 0.125543 0)
(10.9146 0.124543 0)
(10.9189 0.123639 0)
(10.923 0.122821 0)
(10.9268 0.122081 0)
(10.9305 0.121413 0)
(10.934 0.120812 0)
(10.9372 0.120274 0)
(10.9402 0.119798 0)
(10.943 0.119381 0)
(10.9456 0.119023 0)
(10.9479 0.118725 0)
(10.95 0.118488 0)
(10.9518 0.118312 0)
(10.9534 0.118201 0)
(10.9548 0.118155 0)
(10.9558 0.11818 0)
(10.9566 0.118276 0)
(10.9572 0.118448 0)
(10.9574 0.1187 0)
(10.9574 0.119036 0)
(10.9571 0.11946 0)
(10.9565 0.119977 0)
(10.9555 0.120592 0)
(10.9543 0.12131 0)
(10.9528 0.122137 0)
(10.951 0.123078 0)
(10.9488 0.124141 0)
(10.9462 0.125331 0)
(10.9434 0.126656 0)
(10.9401 0.128124 0)
(10.9365 0.129741 0)
(10.9325 0.131518 0)
(10.9281 0.133461 0)
(10.9233 0.135582 0)
(10.9181 0.13789 0)
(10.9124 0.140395 0)
(10.9063 0.143108 0)
(10.8996 0.146043 0)
(10.8925 0.14921 0)
(10.8848 0.152624 0)
(10.8766 0.156299 0)
(10.8678 0.160249 0)
(10.8584 0.16449 0)
(10.8483 0.169038 0)
(10.8376 0.173913 0)
(10.8262 0.17913 0)
(10.814 0.184712 0)
(10.801 0.190677 0)
(10.7872 0.197047 0)
(10.7726 0.203845 0)
(10.757 0.211096 0)
(10.7404 0.218823 0)
(10.7228 0.227052 0)
(10.704 0.235812 0)
(10.6841 0.245129 0)
(10.663 0.255033 0)
(10.6405 0.265556 0)
(10.6166 0.276726 0)
(10.5912 0.288578 0)
(10.5641 0.301144 0)
(10.5354 0.314456 0)
(10.5048 0.328549 0)
(10.4722 0.343457 0)
(10.4375 0.359214 0)
(10.4006 0.375851 0)
(10.3612 0.393403 0)
(10.3192 0.411898 0)
(10.2744 0.431365 0)
(10.2265 0.451831 0)
(10.1754 0.473315 0)
(10.1208 0.495837 0)
(10.0624 0.519406 0)
(9.99988 0.544027 0)
(9.93293 0.569696 0)
(9.86118 0.596398 0)
(9.78423 0.624106 0)
(9.70164 0.652778 0)
(9.61295 0.682357 0)
(9.51762 0.712765 0)
(9.41511 0.743901 0)
(9.30479 0.775639 0)
(9.186 0.807823 0)
(9.05802 0.840264 0)
(8.92006 0.87274 0)
(8.77127 0.904985 0)
(8.61078 0.936699 0)
(8.43762 0.967522 0)
(8.2508 0.997058 0)
(8.04926 1.02484 0)
(7.83191 1.05038 0)
(7.59766 1.07308 0)
(7.34541 1.09234 0)
(7.07408 1.10742 0)
(6.78268 1.11756 0)
(6.47031 1.12191 0)
(6.13629 1.11959 0)
(5.78017 1.10965 0)
(5.40192 1.09119 0)
(5.00193 1.06324 0)
(4.58129 1.02501 0)
(4.14192 0.975743 0)
(3.68691 0.914939 0)
(3.22052 0.842265 0)
(2.74874 0.758061 0)
(2.279 0.663592 0)
(1.82088 0.561372 0)
(1.38621 0.455745 0)
(0.988949 0.354763 0)
(10.0001 0.0208365 0)
(10.007 0.0615043 0)
(10.02 0.099726 0)
(10.0387 0.134099 0)
(10.0623 0.163611 0)
(10.0892 0.188079 0)
(10.1177 0.20809 0)
(10.1466 0.22463 0)
(10.1751 0.238648 0)
(10.2033 0.250735 0)
(10.2314 0.261092 0)
(10.2596 0.269694 0)
(10.2882 0.276468 0)
(10.317 0.281406 0)
(10.3459 0.284583 0)
(10.3745 0.286129 0)
(10.4028 0.286177 0)
(10.4305 0.284848 0)
(10.4576 0.282247 0)
(10.4839 0.278472 0)
(10.5094 0.273627 0)
(10.5339 0.267829 0)
(10.5575 0.261207 0)
(10.5799 0.253905 0)
(10.6011 0.246075 0)
(10.6212 0.23787 0)
(10.64 0.229442 0)
(10.6577 0.220933 0)
(10.6742 0.212476 0)
(10.6896 0.204188 0)
(10.7039 0.196168 0)
(10.7173 0.188499 0)
(10.7298 0.181241 0)
(10.7416 0.174438 0)
(10.7527 0.168117 0)
(10.7632 0.162287 0)
(10.7732 0.156947 0)
(10.7828 0.152081 0)
(10.792 0.14767 0)
(10.8008 0.143688 0)
(10.8094 0.140108 0)
(10.8178 0.136899 0)
(10.826 0.134033 0)
(10.834 0.13148 0)
(10.8419 0.12921 0)
(10.8496 0.127196 0)
(10.8573 0.125408 0)
(10.8648 0.123823 0)
(10.8722 0.122417 0)
(10.8795 0.121169 0)
(10.8867 0.120061 0)
(10.8938 0.119079 0)
(10.9008 0.118208 0)
(10.9076 0.117437 0)
(10.9144 0.116757 0)
(10.9211 0.116161 0)
(10.9276 0.115643 0)
(10.934 0.115197 0)
(10.9402 0.11482 0)
(10.9463 0.114511 0)
(10.9523 0.114267 0)
(10.9581 0.114088 0)
(10.9638 0.113975 0)
(10.9693 0.113928 0)
(10.9747 0.113949 0)
(10.9799 0.114039 0)
(10.9849 0.114202 0)
(10.9897 0.11444 0)
(10.9944 0.114755 0)
(10.9989 0.115153 0)
(11.0032 0.115636 0)
(11.0073 0.11621 0)
(11.0112 0.116878 0)
(11.0148 0.117646 0)
(11.0183 0.118519 0)
(11.0216 0.119502 0)
(11.0247 0.120601 0)
(11.0275 0.121824 0)
(11.0301 0.123176 0)
(11.0324 0.124664 0)
(11.0345 0.126298 0)
(11.0364 0.128084 0)
(11.0379 0.130031 0)
(11.0392 0.132148 0)
(11.0403 0.134445 0)
(11.041 0.136933 0)
(11.0414 0.139622 0)
(11.0415 0.142524 0)
(11.0413 0.145651 0)
(11.0407 0.149015 0)
(11.0398 0.152632 0)
(11.0384 0.156515 0)
(11.0367 0.16068 0)
(11.0346 0.165143 0)
(11.0321 0.169922 0)
(11.0291 0.175035 0)
(11.0256 0.180502 0)
(11.0217 0.186343 0)
(11.0172 0.192579 0)
(11.0122 0.199234 0)
(11.0066 0.206332 0)
(11.0004 0.213899 0)
(10.9935 0.22196 0)
(10.986 0.230545 0)
(10.9778 0.239682 0)
(10.9688 0.249403 0)
(10.959 0.25974 0)
(10.9484 0.270728 0)
(10.9368 0.282401 0)
(10.9243 0.294796 0)
(10.9108 0.307951 0)
(10.8963 0.321906 0)
(10.8805 0.336701 0)
(10.8636 0.352379 0)
(10.8453 0.368981 0)
(10.8256 0.386551 0)
(10.8044 0.405133 0)
(10.7816 0.424771 0)
(10.757 0.445508 0)
(10.7306 0.467387 0)
(10.7021 0.490449 0)
(10.6715 0.514735 0)
(10.6385 0.540279 0)
(10.6029 0.567118 0)
(10.5646 0.595276 0)
(10.5232 0.624779 0)
(10.4785 0.655639 0)
(10.4303 0.687864 0)
(10.3781 0.721446 0)
(10.3216 0.756368 0)
(10.2604 0.792594 0)
(10.1941 0.830072 0)
(10.122 0.868724 0)
(10.0437 0.908454 0)
(9.95853 0.949131 0)
(9.86576 0.990598 0)
(9.76464 1.03266 0)
(9.65431 1.07508 0)
(9.53384 1.11758 0)
(9.40219 1.15983 0)
(9.25825 1.20144 0)
(9.10081 1.24196 0)
(8.92857 1.28088 0)
(8.74012 1.31762 0)
(8.53401 1.35151 0)
(8.30868 1.38182 0)
(8.06258 1.40772 0)
(7.7941 1.42829 0)
(7.50169 1.44256 0)
(7.18386 1.44942 0)
(6.83927 1.44775 0)
(6.46685 1.43625 0)
(6.06589 1.41368 0)
(5.63626 1.37862 0)
(5.1785 1.32985 0)
(4.69409 1.26612 0)
(4.18575 1.18682 0)
(3.65772 1.09168 0)
(3.1163 0.981532 0)
(2.5698 0.858299 0)
(10.0001 0.0174414 0)
(10.0056 0.0516749 0)
(10.016 0.0842426 0)
(10.0311 0.114214 0)
(10.0503 0.140783 0)
(10.0729 0.163577 0)
(10.0976 0.182729 0)
(10.1233 0.198748 0)
(10.1494 0.212268 0)
(10.1756 0.223814 0)
(10.2017 0.233669 0)
(10.2281 0.241911 0)
(10.2547 0.248524 0)
(10.2816 0.253494 0)
(10.3086 0.256865 0)
(10.3355 0.258728 0)
(10.3621 0.259201 0)
(10.3883 0.258402 0)
(10.4139 0.256439 0)
(10.439 0.253409 0)
(10.4633 0.249412 0)
(10.4867 0.244552 0)
(10.5093 0.238942 0)
(10.531 0.232708 0)
(10.5516 0.225979 0)
(10.5712 0.218888 0)
(10.5897 0.211565 0)
(10.6072 0.204135 0)
(10.6237 0.196714 0)
(10.6392 0.189403 0)
(10.6537 0.182291 0)
(10.6674 0.175453 0)
(10.6803 0.168946 0)
(10.6925 0.162811 0)
(10.7041 0.157078 0)
(10.7151 0.151759 0)
(10.7256 0.146858 0)
(10.7357 0.14237 0)
(10.7455 0.138282 0)
(10.7549 0.134576 0)
(10.7641 0.131231 0)
(10.773 0.128224 0)
(10.7818 0.12553 0)
(10.7904 0.123125 0)
(10.7988 0.120984 0)
(10.8071 0.119082 0)
(10.8153 0.117396 0)
(10.8234 0.115903 0)
(10.8314 0.114584 0)
(10.8393 0.11342 0)
(10.8472 0.112395 0)
(10.8549 0.111496 0)
(10.8626 0.11071 0)
(10.8702 0.110026 0)
(10.8777 0.109437 0)
(10.8851 0.108935 0)
(10.8924 0.108515 0)
(10.8997 0.108171 0)
(10.9068 0.107901 0)
(10.9138 0.107702 0)
(10.9207 0.107574 0)
(10.9276 0.107515 0)
(10.9343 0.107525 0)
(10.9409 0.107607 0)
(10.9474 0.10776 0)
(10.9537 0.107987 0)
(10.96 0.10829 0)
(10.9661 0.108673 0)
(10.9721 0.109138 0)
(10.9779 0.109689 0)
(10.9836 0.110331 0)
(10.9892 0.111067 0)
(10.9947 0.111903 0)
(10.9999 0.112843 0)
(11.0051 0.113893 0)
(11.0101 0.115059 0)
(11.0149 0.116347 0)
(11.0195 0.117764 0)
(11.024 0.119316 0)
(11.0283 0.121012 0)
(11.0325 0.12286 0)
(11.0364 0.124867 0)
(11.0401 0.127044 0)
(11.0437 0.1294 0)
(11.047 0.131944 0)
(11.0502 0.134688 0)
(11.0531 0.137644 0)
(11.0558 0.140823 0)
(11.0582 0.144238 0)
(11.0604 0.147904 0)
(11.0623 0.151834 0)
(11.064 0.156045 0)
(11.0654 0.160552 0)
(11.0664 0.165372 0)
(11.0672 0.170526 0)
(11.0677 0.17603 0)
(11.0678 0.181908 0)
(11.0676 0.188179 0)
(11.0671 0.194867 0)
(11.0661 0.201997 0)
(11.0647 0.209595 0)
(11.063 0.217686 0)
(11.0608 0.226301 0)
(11.0581 0.235469 0)
(11.0549 0.245221 0)
(11.0513 0.255592 0)
(11.0471 0.266616 0)
(11.0423 0.278329 0)
(11.0369 0.290771 0)
(11.0309 0.303982 0)
(11.0243 0.318003 0)
(11.0169 0.332877 0)
(11.0088 0.348651 0)
(10.9999 0.365371 0)
(10.9902 0.383085 0)
(10.9795 0.401843 0)
(10.9679 0.421696 0)
(10.9553 0.442696 0)
(10.9416 0.464895 0)
(10.9267 0.488346 0)
(10.9106 0.513103 0)
(10.8931 0.539216 0)
(10.8741 0.56674 0)
(10.8535 0.595721 0)
(10.8312 0.626209 0)
(10.807 0.658244 0)
(10.7807 0.691868 0)
(10.7522 0.72711 0)
(10.7212 0.763999 0)
(10.6874 0.802547 0)
(10.6506 0.842762 0)
(10.6105 0.884629 0)
(10.5667 0.928129 0)
(10.5187 0.973211 0)
(10.4662 1.01982 0)
(10.4085 1.06785 0)
(10.345 1.11719 0)
(10.2751 1.16769 0)
(10.198 1.21915 0)
(10.1129 1.27133 0)
(10.0187 1.32395 0)
(9.91434 1.37666 0)
(9.79864 1.42906 0)
(9.67029 1.48067 0)
(9.52775 1.53092 0)
(9.3695 1.5792 0)
(9.19371 1.62474 0)
(8.99861 1.66675 0)
(8.78211 1.70422 0)
(8.54225 1.73616 0)
(8.27675 1.76133 0)
(7.9836 1.77853 0)
(7.66053 1.78622 0)
(7.30571 1.78301 0)
(6.91726 1.76716 0)
(6.49388 1.73712 0)
(6.03478 1.69113 0)
(5.54 1.62786 0)
(5.01093 1.54606 0)
(4.45004 1.44539 0)
(10 0.014764 0)
(10.0046 0.0438363 0)
(10.0132 0.0717448 0)
(10.0257 0.097803 0)
(10.0419 0.12142 0)
(10.0611 0.142205 0)
(10.0826 0.160085 0)
(10.1056 0.175273 0)
(10.1293 0.188149 0)
(10.1535 0.199101 0)
(10.1779 0.208409 0)
(10.2025 0.216209 0)
(10.2275 0.222541 0)
(10.2526 0.227412 0)
(10.278 0.23085 0)
(10.3033 0.23292 0)
(10.3285 0.233716 0)
(10.3534 0.233343 0)
(10.3778 0.231903 0)
(10.4017 0.229495 0)
(10.4249 0.22621 0)
(10.4475 0.222146 0)
(10.4692 0.217404 0)
(10.4902 0.21209 0)
(10.5102 0.206318 0)
(10.5294 0.200201 0)
(10.5476 0.193854 0)
(10.5648 0.187382 0)
(10.5812 0.180887 0)
(10.5967 0.174459 0)
(10.6113 0.168176 0)
(10.6251 0.162105 0)
(10.6382 0.156298 0)
(10.6507 0.150796 0)
(10.6625 0.145627 0)
(10.6738 0.140807 0)
(10.6846 0.136346 0)
(10.695 0.132241 0)
(10.7051 0.128486 0)
(10.7148 0.125069 0)
(10.7242 0.121975 0)
(10.7334 0.119185 0)
(10.7424 0.116679 0)
(10.7513 0.114437 0)
(10.7599 0.112437 0)
(10.7684 0.11066 0)
(10.7768 0.109084 0)
(10.7851 0.107692 0)
(10.7933 0.106466 0)
(10.8014 0.10539 0)
(10.8094 0.10445 0)
(10.8173 0.103633 0)
(10.8251 0.102928 0)
(10.8329 0.102326 0)
(10.8405 0.101819 0)
(10.8481 0.101401 0)
(10.8556 0.101066 0)
(10.863 0.10081 0)
(10.8704 0.10063 0)
(10.8776 0.100524 0)
(10.8848 0.100491 0)
(10.8918 0.100529 0)
(10.8988 0.10064 0)
(10.9057 0.100824 0)
(10.9124 0.101083 0)
(10.9191 0.101418 0)
(10.9257 0.101833 0)
(10.9321 0.102329 0)
(10.9385 0.102911 0)
(10.9448 0.103582 0)
(10.9509 0.104346 0)
(10.9569 0.105208 0)
(10.9628 0.106172 0)
(10.9686 0.107244 0)
(10.9743 0.10843 0)
(10.9798 0.109736 0)
(10.9852 0.111167 0)
(10.9905 0.112732 0)
(10.9956 0.114437 0)
(11.0006 0.11629 0)
(11.0054 0.1183 0)
(11.0101 0.120474 0)
(11.0146 0.122824 0)
(11.019 0.125359 0)
(11.0232 0.128088 0)
(11.0273 0.131024 0)
(11.0311 0.134179 0)
(11.0348 0.137564 0)
(11.0383 0.141194 0)
(11.0416 0.145082 0)