/*--------------------------------*- C++ -*----------------------------------*\
| =========                 |                                                 |
| \\      /  F ield         | OpenFOAM: The Open Source CFD Toolbox           |
|  \\    /   O peration     | Version:  2306                                  |
|   \\  /    A nd           | Website:  www.openfoam.com                      |
|    \\/     M anipulation  |                                                 |
\*---------------------------------------------------------------------------*/
FoamFile
{
    version     2.0;
    format      ascii;
    arch        "LSB;label=32;scalar=64";
    class       volScalarField;
    location    "0.3";
    object      p;
}
// * * * * * * * * * * * * * * * * * * * * * * * * * * * * * * * * * * * * * //

dimensions      [0 2 -2 0 0 0 0];

internalField   nonuniform List<scalar> 
17600
(
418.991
416.948
415.17
413.94
413.176
412.67
412.252
411.845
411.427
411.004
410.584
410.172
409.768
409.371
408.979
408.592
408.212
407.839
407.478
407.132
406.803
406.496
406.212
405.953
405.72
405.512
405.33
405.171
405.033
404.914
404.811
404.722
404.643
404.572
404.507
404.446
404.388
404.33
404.273
404.215
404.155
404.095
404.033
403.969
403.903
403.837
403.768
403.699
403.628
403.557
403.485
403.413
403.341
403.268
403.196
403.124
403.052
402.981
402.91
402.841
402.772
402.704
402.637
402.57
402.505
402.441
402.379
402.317
402.257
402.198
402.141
402.084
402.03
401.977
401.925
401.875
401.827
401.78
401.735
401.692
401.651
401.612
401.575
401.54
401.507
401.477
401.448
401.423
401.4
401.379
401.361
401.346
401.334
401.326
401.32
401.318
401.319
401.323
401.332
401.344
401.36
401.38
401.405
401.434
401.467
401.505
401.548
401.595
401.648
401.706
401.769
401.837
401.911
401.99
402.074
402.164
402.26
402.361
402.467
402.578
402.695
402.816
402.942
403.072
403.207
403.345
403.486
403.63
403.777
403.925
404.074
404.223
404.372
404.52
404.666
404.809
404.949
405.086
405.219
405.346
405.468
405.585
405.695
405.798
405.894
405.983
406.065
406.141
406.209
406.271
406.327
406.376
406.419
406.456
406.488
406.515
406.537
406.555
406.569
406.579
416.262
415.492
414.566
413.702
413.011
412.489
412.068
411.686
411.306
410.918
410.523
410.129
409.739
409.355
408.976
408.602
408.234
407.874
407.525
407.19
406.872
406.572
406.294
406.039
405.807
405.599
405.415
405.253
405.111
404.988
404.88
404.785
404.701
404.625
404.555
404.489
404.426
404.364
404.303
404.242
404.18
404.117
404.053
403.987
403.92
403.852
403.782
403.712
403.64
403.568
403.496
403.423
403.35
403.278
403.205
403.133
403.061
402.989
402.918
402.848
402.779
402.711
402.644
402.577
402.512
402.448
402.385
402.324
402.263
402.204
402.147
402.09
402.036
401.982
401.931
401.881
401.832
401.786
401.741
401.698
401.657
401.617
401.58
401.545
401.513
401.482
401.454
401.428
401.405
401.385
401.367
401.352
401.34
401.331
401.326
401.324
401.325
401.33
401.338
401.351
401.367
401.387
401.412
401.441
401.475
401.513
401.557
401.605
401.658
401.716
401.78
401.849
401.923
402.003
402.088
402.179
402.275
402.376
402.484
402.596
402.713
402.836
402.963
403.094
403.229
403.368
403.511
403.656
403.803
403.951
404.1
404.25
404.399
404.546
404.692
404.834
404.974
405.109
405.24
405.366
405.487
405.603
405.712
405.814
405.91
405.998
406.079
406.153
406.221
406.281
406.336
406.384
406.426
406.462
406.493
406.519
406.54
406.558
406.571
406.58
414.958
414.608
414.079
413.467
412.875
412.361
411.928
411.548
411.187
410.826
410.458
410.086
409.714
409.347
408.984
408.628
408.279
407.939
407.608
407.29
406.987
406.7
406.431
406.181
405.953
405.745
405.557
405.39
405.24
405.108
404.99
404.884
404.789
404.703
404.623
404.548
404.477
404.408
404.34
404.272
404.205
404.137
404.069
404.001
403.931
403.861
403.79
403.719
403.646
403.574
403.501
403.428
403.355
403.281
403.209
403.136
403.064
402.993
402.922
402.852
402.782
402.714
402.646
402.58
402.514
402.45
402.387
402.325
402.265
402.205
402.147
402.091
402.036
401.982
401.93
401.88
401.831
401.784
401.739
401.695
401.654
401.614
401.576
401.541
401.508
401.477
401.448
401.422
401.398
401.377
401.359
401.343
401.33
401.321
401.315
401.312
401.312
401.316
401.324
401.336
401.351
401.371
401.395
401.423
401.456
401.493
401.535
401.582
401.635
401.692
401.755
401.823
401.896
401.975
402.059
402.149
402.245
402.346
402.453
402.565
402.682
402.805
402.932
403.064
403.2
403.34
403.484
403.63
403.779
403.929
404.081
404.234
404.385
404.536
404.685
404.832
404.975
405.114
405.248
405.377
405.501
405.617
405.727
405.829
405.923
406.011
406.091
406.165
406.232
406.293
406.348
406.396
406.437
406.473
406.503
406.528
406.548
406.564
406.577
406.586
414.054
413.862
413.529
413.094
412.619
412.163
411.752
411.384
411.041
410.704
410.364
410.019
409.671
409.325
408.982
408.646
408.317
407.996
407.684
407.383
407.095
406.82
406.562
406.32
406.096
405.89
405.701
405.53
405.376
405.236
405.11
404.996
404.891
404.795
404.706
404.622
404.543
404.465
404.39
404.316
404.243
404.171
404.099
404.026
403.954
403.881
403.808
403.734
403.66
403.586
403.512
403.438
403.364
403.29
403.216
403.143
403.071
402.998
402.927
402.856
402.787
402.718
402.65
402.583
402.517
402.452
402.388
402.326
402.265
402.205
402.146
402.089
402.033
401.979
401.926
401.875
401.826
401.778
401.732
401.687
401.645
401.604
401.566
401.529
401.495
401.463
401.433
401.405
401.38
401.358
401.338
401.321
401.307
401.296
401.288
401.284
401.282
401.284
401.29
401.3
401.313
401.331
401.352
401.378
401.408
401.443
401.483
401.527
401.577
401.631
401.691
401.756
401.827
401.903
401.984
402.071
402.164
402.262
402.366
402.476
402.59
402.711
402.836
402.966
403.101
403.24
403.383
403.529
403.679
403.83
403.984
404.139
404.294
404.449
404.603
404.755
404.905
405.051
405.193
405.33
405.461
405.586
405.705
405.815
405.918
406.013
406.099
406.176
406.245
406.306
406.359
406.406
406.446
406.482
406.513
406.539
406.559
406.575
406.587
406.595
413.368
413.243
413.015
412.698
412.327
411.942
411.571
411.226
410.901
410.585
410.269
409.949
409.625
409.3
408.978
408.661
408.35
408.046
407.751
407.466
407.191
406.928
406.679
406.445
406.225
406.022
405.834
405.661
405.503
405.358
405.225
405.103
404.991
404.887
404.789
404.698
404.61
404.526
404.444
404.364
404.286
404.208
404.132
404.056
403.98
403.904
403.828
403.752
403.676
403.601
403.525
403.449
403.374
403.299
403.225
403.151
403.078
403.005
402.933
402.861
402.791
402.721
402.653
402.585
402.519
402.453
402.389
402.326
402.264
402.203
402.144
402.086
402.029
401.974
401.92
401.868
401.817
401.768
401.721
401.675
401.631
401.589
401.549
401.511
401.475
401.441
401.41
401.381
401.354
401.329
401.307
401.288
401.272
401.258
401.248
401.241
401.236
401.236
401.238
401.245
401.255
401.268
401.286
401.308
401.335
401.365
401.4
401.44
401.485
401.535
401.589
401.649
401.714
401.784
401.86
401.941
402.028
402.12
402.218
402.321
402.43
402.544
402.663
402.788
402.917
403.051
403.189
403.331
403.477
403.625
403.777
403.93
404.085
404.241
404.396
404.552
404.706
404.859
405.009
405.156
405.298
405.436
405.569
405.695
405.813
405.924
406.027
406.12
406.205
406.281
406.348
406.406
406.454
406.493
406.523
406.547
406.566
406.582
406.595
406.606
412.821
412.731
412.564
412.326
412.035
411.715
411.389
411.073
410.768
410.472
410.176
409.878
409.577
409.273
408.97
408.671
408.376
408.088
407.808
407.536
407.273
407.021
406.781
406.553
406.339
406.138
405.95
405.776
405.615
405.466
405.329
405.201
405.082
404.971
404.867
404.768
404.673
404.583
404.495
404.41
404.327
404.245
404.164
404.084
404.005
403.926
403.848
403.77
403.692
403.615
403.538
403.461
403.384
403.308
403.233
403.158
403.084
403.01
402.938
402.866
402.794
402.724
402.655
402.587
402.519
402.453
402.388
402.324
402.261
402.199
402.139
402.08
402.022
401.966
401.911
401.858
401.806
401.755
401.707
401.66
401.614
401.571
401.529
401.489
401.451
401.415
401.382
401.35
401.321
401.294
401.269
401.247
401.228
401.212
401.198
401.187
401.179
401.175
401.173
401.176
401.181
401.19
401.203
401.22
401.241
401.266
401.295
401.329
401.367
401.41
401.457
401.51
401.567
401.629
401.697
401.769
401.847
401.93
402.018
402.112
402.211
402.315
402.424
402.538
402.657
402.781
402.91
403.042
403.179
403.319
403.463
403.609
403.758
403.909
404.061
404.215
404.369
404.523
404.676
404.828
404.979
405.126
405.271
405.411
405.547
405.677
405.802
405.92
406.03
406.132
406.225
406.308
406.38
406.442
406.494
406.537
406.569
406.591
406.605
406.614
412.372
412.304
412.175
411.99
411.757
411.49
411.208
410.922
410.64
410.363
410.086
409.807
409.525
409.241
408.956
408.674
408.395
408.121
407.854
407.594
407.342
407.1
406.867
406.646
406.436
406.237
406.051
405.877
405.714
405.562
405.42
405.288
405.164
405.047
404.937
404.832
404.732
404.636
404.543
404.453
404.366
404.28
404.195
404.112
404.03
403.948
403.867
403.787
403.707
403.628
403.55
403.472
403.394
403.317
403.241
403.165
403.09
403.015
402.942
402.869
402.797
402.726
402.656
402.587
402.519
402.452
402.386
402.321
402.257
402.195
402.133
402.073
402.014
401.957
401.901
401.846
401.793
401.741
401.69
401.642
401.595
401.549
401.506
401.464
401.424
401.386
401.35
401.316
401.284
401.254
401.227
401.202
401.179
401.159
401.142
401.127
401.115
401.107
401.101
401.098
401.099
401.102
401.11
401.121
401.135
401.154
401.176
401.203
401.233
401.268
401.307
401.35
401.398
401.451
401.508
401.57
401.637
401.709
401.785
401.866
401.953
402.044
402.14
402.24
402.346
402.455
402.57
402.688
402.81
402.937
403.067
403.2
403.337
403.476
403.618
403.762
403.908
404.056
404.205
404.355
404.505
404.656
404.806
404.955
405.102
405.248
405.39
405.53
405.664
405.794
405.918
406.035
406.144
406.243
406.333
406.411
406.476
406.53
406.572
406.603
411.997
411.943
411.84
411.691
411.499
411.276
411.031
410.775
410.516
410.257
409.998
409.737
409.473
409.206
408.938
408.671
408.406
408.145
407.89
407.641
407.399
407.165
406.94
406.724
406.519
406.323
406.139
405.965
405.801
405.647
405.502
405.366
405.237
405.116
405.001
404.891
404.786
404.685
404.588
404.494
404.402
404.312
404.224
404.138
404.053
403.969
403.886
403.803
403.722
403.641
403.561
403.482
403.403
403.325
403.247
403.171
403.095
403.019
402.945
402.872
402.799
402.727
402.656
402.586
402.517
402.449
402.382
402.317
402.252
402.188
402.126
402.065
402.005
401.946
401.889
401.832
401.778
401.724
401.673
401.622
401.573
401.526
401.48
401.437
401.394
401.354
401.315
401.279
401.244
401.212
401.181
401.153
401.127
401.103
401.082
401.063
401.047
401.034
401.023
401.015
401.011
401.009
401.01
401.015
401.023
401.034
401.049
401.068
401.09
401.116
401.146
401.18
401.218
401.26
401.306
401.356
401.411
401.47
401.533
401.601
401.673
401.749
401.829
401.914
402.003
402.096
402.193
402.294
402.399
402.507
402.619
402.735
402.854
402.976
403.101
403.229
403.36
403.494
403.63
403.769
403.91
404.054
404.199
404.347
404.496
404.647
404.798
404.95
405.103
405.254
405.404
405.552
405.696
405.834
405.966
406.09
406.205
406.307
406.397
406.473
411.681
411.636
411.551
411.427
411.266
411.075
410.862
410.633
410.397
410.157
409.914
409.668
409.42
409.169
408.916
408.663
408.412
408.163
407.919
407.68
407.447
407.22
407.002
406.792
406.59
406.398
406.215
406.041
405.877
405.721
405.574
405.435
405.303
405.178
405.058
404.945
404.835
404.731
404.629
404.531
404.436
404.343
404.252
404.163
404.075
403.988
403.903
403.819
403.736
403.653
403.572
403.491
403.411
403.332
403.253
403.176
403.099
403.023
402.947
402.873
402.8
402.727
402.655
402.584
402.515
402.446
402.378
402.311
402.246
402.181
402.117
402.055
401.994
401.934
401.875
401.818
401.762
401.707
401.653
401.601
401.55
401.501
401.454
401.407
401.363
401.32
401.279
401.24
401.202
401.167
401.133
401.102
401.072
401.045
401.02
400.997
400.976
400.958
400.943
400.93
400.919
400.912
400.907
400.905
400.906
400.91
400.918
400.928
400.942
400.959
400.979
401.003
401.03
401.061
401.096
401.134
401.176
401.222
401.271
401.324
401.381
401.441
401.505
401.573
401.644
401.719
401.797
401.878
401.963
402.052
402.143
402.238
402.335
402.436
402.54
402.648
402.758
402.872
402.988
403.109
403.233
403.36
403.492
403.628
403.768
403.912
404.06
404.213
404.371
404.532
404.697
404.864
405.034
405.204
405.374
405.541
405.703
405.859
406.006
406.141
411.411
411.374
411.301
411.195
411.058
410.892
410.704
410.499
410.284
410.061
409.834
409.603
409.369
409.132
408.893
408.653
408.413
408.176
407.941
407.711
407.486
407.267
407.054
406.849
406.652
406.462
406.281
406.108
405.943
405.786
405.638
405.496
405.361
405.233
405.11
404.993
404.88
404.772
404.667
404.566
404.467
404.371
404.277
404.185
404.095
404.006
403.919
403.833
403.748
403.664
403.581
403.499
403.418
403.338
403.258
403.18
403.102
403.025
402.949
402.874
402.799
402.726
402.653
402.582
402.511
402.441
402.373
402.305
402.238
402.172
402.108
402.044
401.982
401.921
401.861
401.802
401.744
401.688
401.632
401.579
401.526
401.475
401.425
401.377
401.33
401.285
401.241
401.199
401.159
401.12
401.084
401.049
401.016
400.984
400.955
400.928
400.903
400.88
400.86
400.841
400.825
400.812
400.801
400.792
400.786
400.783
400.783
400.785
400.79
400.798
400.809
400.822
400.839
400.859
400.882
400.907
400.936
400.968
401.003
401.041
401.082
401.126
401.173
401.223
401.276
401.332
401.39
401.452
401.515
401.582
401.651
401.723
401.798
401.875
401.956
402.039
402.125
402.214
402.307
402.404
402.505
402.61
402.721
402.836
402.958
403.085
403.22
403.362
403.511
403.669
403.834
404.007
404.188
404.375
404.569
404.767
404.968
405.17
405.369
405.562
411.181
411.148
411.086
410.994
410.873
410.728
410.56
410.375
410.178
409.972
409.76
409.542
409.321
409.096
408.869
408.64
408.412
408.184
407.958
407.736
407.518
407.306
407.099
406.898
406.704
406.517
406.337
406.165
406.001
405.843
405.693
405.55
405.413
405.282
405.156
405.036
404.92
404.809
404.701
404.597
404.495
404.397
404.3
404.206
404.113
404.023
403.934
403.846
403.759
403.674
403.59
403.506
403.424
403.343
403.262
403.183
403.104
403.026
402.949
402.873
402.798
402.724
402.65
402.578
402.506
402.436
402.366
402.297
402.23
402.163
402.097
402.032
401.969
401.906
401.845
401.784
401.725
401.667
401.61
401.555
401.5
401.447
401.395
401.345
401.296
401.248
401.202
401.157
401.114
401.072
401.032
400.994
400.957
400.922
400.889
400.857
400.828
400.8
400.775
400.751
400.729
400.71
400.693
400.677
400.664
400.654
400.645
400.639
400.636
400.634
400.635
400.639
400.645
400.653
400.664
400.678
400.693
400.711
400.732
400.755
400.78
400.808
400.838
400.87
400.904
400.94
400.978
401.019
401.061
401.105
401.152
401.2
401.25
401.303
401.357
401.415
401.475
401.537
401.603
401.673
401.747
401.826
401.91
402
402.096
402.2
402.312
402.434
402.565
402.706
402.859
403.024
403.201
403.391
403.592
403.805
404.028
404.259
404.497
404.738
410.985
410.956
410.901
410.819
410.712
410.582
410.431
410.263
410.082
409.89
409.691
409.486
409.276
409.062
408.845
408.627
408.407
408.188
407.971
407.756
407.545
407.338
407.136
406.939
406.748
406.564
406.386
406.215
406.05
405.893
405.741
405.597
405.458
405.325
405.197
405.074
404.956
404.842
404.731
404.624
404.521
404.419
404.321
404.224
404.13
404.037
403.946
403.857
403.769
403.682
403.597
403.512
403.429
403.346
403.265
403.185
403.105
403.026
402.949
402.872
402.796
402.721
402.646
402.573
402.501
402.429
402.358
402.289
402.22
402.152
402.085
402.019
401.955
401.891
401.828
401.766
401.705
401.646
401.587
401.53
401.473
401.418
401.364
401.312
401.26
401.21
401.161
401.114
401.068
401.023
400.98
400.938
400.897
400.858
400.821
400.785
400.751
400.719
400.688
400.659
400.632
400.606
400.582
400.56
400.54
400.522
400.506
400.492
400.479
400.469
400.46
400.453
400.449
400.446
400.445
400.445
400.448
400.452
400.459
400.466
400.476
400.487
400.499
400.513
400.528
400.545
400.563
400.582
400.603
400.624
400.647
400.671
400.696
400.723
400.751
400.781
400.813
400.848
400.885
400.926
400.97
401.019
401.073
401.134
401.201
401.276
401.36
401.454
401.559
401.677
401.808
401.953
402.114
402.292
402.486
402.697
402.925
403.169
403.427
403.698
410.818
410.792
410.742
410.669
410.572
410.454
410.317
410.162
409.995
409.816
409.628
409.434
409.234
409.03
408.823
408.613
408.402
408.191
407.98
407.772
407.566
407.364
407.166
406.973
406.785
406.603
406.427
406.257
406.093
405.935
405.783
405.637
405.497
405.362
405.232
405.107
404.987
404.871
404.758
404.649
404.543
404.439
404.339
404.241
404.144
404.05
403.958
403.867
403.777
403.689
403.603
403.517
403.433
403.349
403.267
403.186
403.105
403.026
402.947
402.869
402.792
402.716
402.641
402.567
402.494
402.421
402.35
402.279
402.209
402.14
402.072
402.005
401.939
401.874
401.81
401.747
401.684
401.623
401.563
401.504
401.445
401.388
401.332
401.277
401.224
401.171
401.119
401.069
401.02
400.972
400.925
400.88
400.836
400.793
400.752
400.712
400.673
400.636
400.6
400.565
400.532
400.501
400.471
400.442
400.415
400.389
400.365
400.342
400.321
400.301
400.283
400.266
400.25
400.236
400.223
400.212
400.201
400.192
400.183
400.176
400.169
400.164
400.159
400.155
400.151
400.148
400.145
400.143
400.141
400.14
400.139
400.138
400.138
400.138
400.139
400.141
400.145
400.15
400.157
400.167
400.18
400.197
400.219
400.246
400.281
400.323
400.375
400.437
400.511
400.598
400.7
400.819
400.955
401.11
401.286
401.483
401.701
401.941
402.203
402.486
410.677
410.653
410.608
410.541
410.453
410.344
410.218
410.075
409.918
409.75
409.572
409.387
409.197
409.001
408.801
408.599
408.395
408.191
407.987
407.784
407.583
407.385
407.191
407.002
406.816
406.636
406.461
406.292
406.128
405.97
405.818
405.671
405.53
405.394
405.262
405.136
405.014
404.895
404.781
404.67
404.562
404.457
404.354
404.254
404.157
404.061
403.967
403.875
403.784
403.695
403.607
403.521
403.435
403.351
403.268
403.185
403.104
403.024
402.944
402.866
402.788
402.711
402.635
402.56
402.486
402.413
402.34
402.269
402.198
402.128
402.059
401.99
401.923
401.857
401.791
401.726
401.662
401.6
401.538
401.477
401.416
401.357
401.299
401.242
401.186
401.131
401.076
401.023
400.971
400.92
400.87
400.821
400.773
400.727
400.681
400.637
400.593
400.551
400.51
400.47
400.432
400.394
400.358
400.322
400.288
400.255
400.223
400.192
400.162
400.133
400.105
400.077
400.051
400.026
400.001
399.976
399.953
399.93
399.907
399.884
399.862
399.84
399.817
399.795
399.772
399.75
399.726
399.702
399.678
399.653
399.628
399.602
399.576
399.549
399.523
399.496
399.47
399.444
399.42
399.397
399.378
399.361
399.349
399.341
399.34
399.347
399.363
399.389
399.428
399.48
399.548
399.634
399.739
399.864
400.013
400.186
400.384
400.609
400.861
401.14
410.56
410.538
410.496
410.434
410.352
410.252
410.133
409.999
409.852
409.693
409.524
409.347
409.164
408.975
408.782
408.587
408.389
408.19
407.991
407.793
407.596
407.402
407.212
407.024
406.841
406.663
406.489
406.321
406.158
406
405.847
405.7
405.558
405.42
405.288
405.16
405.036
404.916
404.8
404.687
404.578
404.471
404.367
404.266
404.167
404.07
403.975
403.881
403.789
403.699
403.61
403.523
403.436
403.351
403.267
403.184
403.102
403.021
402.941
402.861
402.783
402.705
402.629
402.553
402.478
402.403
402.33
402.257
402.185
402.114
402.044
401.975
401.906
401.838
401.771
401.705
401.64
401.575
401.511
401.448
401.386
401.325
401.265
401.205
401.147
401.089
401.032
400.976
400.921
400.867
400.814
400.761
400.71
400.659
400.61
400.561
400.513
400.466
400.42
400.374
400.33
400.286
400.243
400.201
400.16
400.119
400.079
400.04
400.001
399.963
399.925
399.888
399.851
399.814
399.777
399.741
399.704
399.667
399.63
399.592
399.554
399.515
399.475
399.435
399.393
399.35
399.306
399.261
399.214
399.165
399.115
399.064
399.011
398.957
398.902
398.846
398.789
398.732
398.675
398.619
398.564
398.512
398.464
398.419
398.381
398.35
398.327
398.314
398.314
398.327
398.357
398.405
398.473
398.564
398.679
398.821
398.991
399.192
399.424
399.689
410.465
410.445
410.405
410.347
410.27
410.175
410.064
409.937
409.796
409.645
409.483
409.312
409.135
408.953
408.766
408.575
408.383
408.188
407.994
407.799
407.607
407.416
407.228
407.043
406.862
406.685
406.512
406.344
406.181
406.024
405.871
405.723
405.58
405.442
405.308
405.179
405.054
404.933
404.815
404.701
404.59
404.482
404.377
404.275
404.174
404.076
403.98
403.886
403.793
403.702
403.612
403.524
403.437
403.351
403.266
403.182
403.099
403.017
402.936
402.856
402.777
402.698
402.621
402.544
402.468
402.393
402.319
402.245
402.172
402.1
402.028
401.958
401.888
401.819
401.75
401.683
401.616
401.55
401.484
401.42
401.356
401.292
401.23
401.168
401.107
401.047
400.987
400.929
400.871
400.813
400.757
400.701
400.646
400.591
400.537
400.484
400.431
400.38
400.328
400.278
400.227
400.178
400.129
400.08
400.031
399.983
399.936
399.888
399.841
399.793
399.746
399.698
399.65
399.602
399.554
399.505
399.455
399.404
399.352
399.3
399.246
399.19
399.133
399.074
399.013
398.951
398.886
398.818
398.748
398.676
398.602
398.524
398.444
398.362
398.278
398.191
398.103
398.013
397.922
397.831
397.741
397.652
397.565
397.481
397.403
397.33
397.266
397.212
397.169
397.14
397.127
397.133
397.16
397.211
397.288
397.393
397.53
397.699
397.904
398.146
410.39
410.371
410.334
410.278
410.205
410.115
410.008
409.887
409.752
409.606
409.449
409.285
409.112
408.935
408.752
408.566
408.377
408.186
407.995
407.804
407.614
407.426
407.239
407.056
406.877
406.701
406.529
406.362
406.2
406.042
405.889
405.741
405.597
405.458
405.324
405.194
405.068
404.945
404.827
404.712
404.6
404.491
404.385
404.281
404.18
404.081
403.984
403.888
403.795
403.703
403.612
403.523
403.435
403.348
403.263
403.178
403.095
403.012
402.93
402.85
402.77
402.691
402.612
402.535
402.458
402.382
402.306
402.232
402.158
402.085
402.012
401.94
401.869
401.799
401.729
401.66
401.591
401.523
401.456
401.39
401.324
401.259
401.194
401.13
401.067
401.004
400.942
400.88
400.819
400.759
400.699
400.639
400.58
400.522
400.464
400.407
400.349
400.293
400.236
400.18
400.124
400.069
400.013
399.958
399.902
399.847
399.791
399.736
399.679
399.623
399.566
399.508
399.45
399.391
399.33
399.269
399.206
399.142
399.076
399.008
398.938
398.866
398.791
398.714
398.634
398.551
398.465
398.376
398.283
398.187
398.087
397.983
397.876
397.765
397.651
397.533
397.412
397.289
397.163
397.035
396.907
396.779
396.652
396.527
396.405
396.29
396.181
396.081
395.992
395.917
395.858
395.818
395.799
395.805
395.839
395.903
396
396.134
396.306
396.519
410.335
410.317
410.281
410.228
410.157
410.07
409.967
409.849
409.719
409.577
409.424
409.263
409.095
408.921
408.741
408.558
408.372
408.184
407.996
407.807
407.619
407.432
407.248
407.066
406.888
406.713
406.542
406.375
406.213
406.055
405.902
405.753
405.609
405.47
405.335
405.204
405.077
404.954
404.835
404.719
404.606
404.496
404.389
404.285
404.183
404.083
403.985
403.889
403.795
403.702
403.611
403.521
403.433
403.345
403.259
403.174
403.09
403.006
402.924
402.842
402.762
402.682
402.603
402.524
402.447
402.37
402.293
402.218
402.143
402.069
401.995
401.922
401.85
401.778
401.707
401.636
401.566
401.497
401.428
401.359
401.292
401.224
401.158
401.091
401.026
400.96
400.895
400.831
400.767
400.704
400.64
400.577
400.515
400.453
400.39
400.329
400.267
400.205
400.144
400.083
400.021
399.959
399.898
399.836
399.773
399.71
399.647
399.583
399.519
399.453
399.386
399.319
399.25
399.179
399.108
399.034
398.958
398.88
398.8
398.717
398.631
398.543
398.451
398.355
398.256
398.153
398.046
397.935
397.819
397.698
397.573
397.443
397.307
397.167
397.022
396.872
396.718
396.559
396.397
396.232
396.064
395.895
395.725
395.556
395.389
395.227
395.07
394.921
394.783
394.657
394.548
394.457
394.388
394.345
394.33
394.347
394.4
394.492
394.626
394.805
410.299
410.281
410.246
410.194
410.125
410.04
409.939
409.824
409.696
409.557
409.407
409.249
409.083
408.911
408.734
408.553
408.369
408.183
407.996
407.808
407.622
407.436
407.253
407.072
406.894
406.72
406.55
406.383
406.221
406.063
405.91
405.761
405.617
405.477
405.342
405.21
405.083
404.959
404.839
404.723
404.609
404.499
404.391
404.286
404.184
404.083
403.985
403.888
403.793
403.7
403.608
403.518
403.429
403.341
403.254
403.168
403.083
402.999
402.916
402.834
402.753
402.672
402.592
402.513
402.435
402.357
402.28
402.203
402.127
402.052
401.977
401.903
401.829
401.756
401.684
401.612
401.54
401.469
401.399
401.328
401.259
401.189
401.121
401.052
400.984
400.916
400.849
400.782
400.715
400.648
400.581
400.515
400.449
400.383
400.317
400.251
400.184
400.118
400.052
399.985
399.918
399.85
399.782
399.714
399.644
399.574
399.503
399.431
399.358
399.284
399.208
399.13
399.051
398.969
398.886
398.8
398.711
398.62
398.526
398.428
398.327
398.221
398.112
397.999
397.88
397.757
397.629
397.496
397.356
397.211
397.06
396.903
396.739
396.569
396.393
396.21
396.021
395.826
395.626
395.422
395.213
395
394.785
394.57
394.355
394.142
393.934
393.732
393.54
393.36
393.195
393.048
392.924
392.826
392.757
392.722
392.725
392.77
392.86
393
410.28
410.263
410.228
410.177
410.109
410.025
409.925
409.811
409.685
409.547
409.398
409.241
409.077
408.906
408.73
408.55
408.366
408.181
407.995
407.809
407.623
407.438
407.255
407.075
406.897
406.723
406.553
406.386
406.224
406.066
405.913
405.764
405.62
405.48
405.344
405.212
405.084
404.961
404.84
404.723
404.609
404.499
404.391
404.285
404.182
404.081
403.982
403.885
403.79
403.696
403.604
403.513
403.423
403.335
403.247
403.161
403.076
402.991
402.908
402.825
402.743
402.662
402.581
402.501
402.422
402.343
402.265
402.188
402.111
402.034
401.959
401.883
401.808
401.734
401.66
401.587
401.514
401.441
401.369
401.297
401.225
401.154
401.083
401.012
400.942
400.872
400.802
400.732
400.662
400.592
400.522
400.453
400.383
400.313
400.243
400.172
400.102
400.031
399.959
399.887
399.815
399.741
399.667
399.592
399.516
399.439
399.36
399.28
399.199
399.115
399.03
398.943
398.853
398.761
398.666
398.568
398.467
398.362
398.254
398.141
398.024
397.903
397.776
397.645
397.507
397.364
397.215
397.059
396.896
396.726
396.549
396.365
396.172
395.972
395.763
395.547
395.323
395.091
394.852
394.606
394.353
394.096
393.834
393.569
393.302
393.036
392.773
392.514
392.263
392.023
391.797
391.589
391.403
391.243
391.115
391.022
390.969
390.96
391.001
391.095
410.28
410.262
410.228
410.176
410.108
410.024
409.925
409.811
409.684
409.546
409.398
409.241
409.076
408.905
408.729
408.549
408.366
408.181
407.994
407.808
407.622
407.437
407.254
407.073
406.896
406.722
406.551
406.385
406.223
406.065
405.911
405.762
405.618
405.478
405.342
405.21
405.082
404.958
404.837
404.72
404.606
404.495
404.387
404.281
404.178
404.077
403.977
403.88
403.785
403.69
403.598
403.507
403.417
403.328
403.24
403.153
403.067
402.982
402.898
402.815
402.732
402.65
402.569
402.488
402.408
402.329
402.25
402.172
402.094
402.016
401.94
401.863
401.787
401.711
401.636
401.561
401.487
401.413
401.339
401.265
401.191
401.118
401.045
400.972
400.9
400.827
400.754
400.682
400.609
400.536
400.463
400.39
400.317
400.243
400.169
400.094
400.019
399.943
399.867
399.79
399.712
399.633
399.553
399.471
399.389
399.304
399.218
399.13
399.041
398.949
398.854
398.757
398.657
398.554
398.448
398.338
398.224
398.107
397.984
397.857
397.725
397.587
397.444
397.294
397.138
396.975
396.804
396.626
396.44
396.245
396.042
395.83
395.608
395.377
395.136
394.885
394.625
394.354
394.075
393.786
393.488
393.183
392.871
392.554
392.233
391.909
391.586
391.265
390.951
390.645
390.352
390.076
389.822
389.594
389.398
389.24
389.123
389.054
389.039
389.082
410.297
410.279
410.244
410.192
410.124
410.038
409.938
409.823
409.695
409.555
409.405
409.247
409.081
408.909
408.732
408.551
408.366
408.18
407.993
407.806
407.619
407.433
407.25
407.069
406.891
406.716
406.546
406.379
406.216
406.058
405.905
405.756
405.611
405.471
405.335
405.203
405.075
404.951
404.831
404.714
404.6
404.489
404.381
404.275
404.171
404.07
403.971
403.873
403.778
403.683
403.591
403.499
403.409
403.32
403.231
403.144
403.058
402.973
402.888
402.804
402.721
402.638
402.556
402.475
402.394
402.314
402.234
402.155
402.076
401.998
401.92
401.842
401.765
401.688
401.612
401.535
401.459
401.384
401.308
401.233
401.157
401.082
401.007
400.932
400.857
400.782
400.707
400.631
400.556
400.48
400.404
400.327
400.251
400.173
400.095
400.016
399.937
399.857
399.776
399.693
399.61
399.525
399.439
399.352
399.262
399.171
399.078
398.982
398.884
398.784
398.68
398.574
398.464
398.35
398.233
398.111
397.985
397.854
397.718
397.577
397.429
397.276
397.115
396.948
396.773
396.59
396.398
396.198
395.988
395.769
395.539
395.299
395.048
394.785
394.511
394.226
393.928
393.618
393.297
392.963
392.619
392.264
391.9
391.527
391.147
390.762
390.375
389.987
389.603
389.226
388.859
388.508
388.178
387.874
387.602
387.369
387.181
387.043
386.964
386.947
410.333
410.314
410.279
410.225
410.155
410.067
409.964
409.847
409.716
409.574
409.421
409.26
409.092
408.917
408.738
408.555
408.368
408.18
407.992
407.803
407.614
407.427
407.243
407.061
406.882
406.706
406.535
406.368
406.205
406.047
405.893
405.744
405.6
405.46
405.324
405.192
405.065
404.941
404.821
404.704
404.59
404.48
404.371
404.266
404.163
404.061
403.962
403.865
403.769
403.675
403.582
403.49
403.399
403.31
403.222
403.134
403.048
402.962
402.877
402.792
402.708
402.625
402.543
402.461
402.379
402.298
402.218
402.138
402.058
401.979
401.9
401.821
401.743
401.665
401.587
401.509
401.432
401.354
401.277
401.2
401.123
401.046
400.969
400.892
400.814
400.737
400.659
400.581
400.503
400.424
400.345
400.265
400.185
400.104
400.022
399.939
399.856
399.771
399.685
399.598
399.509
399.419
399.327
399.233
399.137
399.039
398.939
398.836
398.73
398.621
398.508
398.393
398.273
398.149
398.021
397.888
397.75
397.606
397.457
397.301
397.138
396.969
396.792
396.607
396.413
396.21
395.998
395.775
395.542
395.298
395.042
394.774
394.493
394.199
393.892
393.57
393.235
392.884
392.52
392.141
391.747
391.341
390.921
390.489
390.048
389.597
389.141
388.681
388.221
387.764
387.317
386.882
386.467
386.078
385.721
385.403
385.133
384.917
384.763
384.679
410.387
410.368
410.331
410.275
410.202
410.111
410.005
409.883
409.748
409.602
409.446