/*--------------------------------*- C++ -*----------------------------------*\
| =========                 |                                                 |
| \\      /  F ield         | OpenFOAM: The Open Source CFD Toolbox           |
|  \\    /   O peration     | Version:  2306                                  |
|   \\  /    A nd           | Website:  www.openfoam.com                      |
|    \\/     M anipulation  |                                                 |
\*---------------------------------------------------------------------------*/
FoamFile
{
    version     2.0;
    format      ascii;
    arch        "LSB;label=32;scalar=64";
    class       surfaceScalarField;
    location    "0.3";
    object      phi;
}
// * * * * * * * * * * * * * * * * * * * * * * * * * * * * * * * * * * * * * //

dimensions      [0 3 -1 0 0 0 0];

oriented        oriented;

internalField   nonuniform List<scalar> 
34640
(
0.0049244
7.55987e-05
0.00478599
0.000138414
0.00463052
0.000155467
0.00447385
0.000156669
0.00431583
0.000158023
0.00415467
0.000161162
0.00399075
0.00016392
0.00382542
0.00016533
0.00366031
0.000165105
0.00349681
0.000163498
0.00333583
0.000160982
0.00317796
0.000157867
0.00302375
0.000154218
0.00287375
0.000149992
0.00272862
0.000145136
0.00258899
0.000139632
0.00245554
0.000133442
0.00232889
0.00012665
0.0022094
0.000119491
0.00209746
0.000111939
0.00199339
0.000104075
0.00189738
9.60096e-05
0.00180951
8.78652e-05
0.00172974
7.97707e-05
0.00165789
7.18536e-05
0.00159366
6.42331e-05
0.00153664
5.70134e-05
0.00148636
5.02796e-05
0.00144227
4.40939e-05
0.00140377
3.8496e-05
0.00137027
3.35024e-05
0.00134116
2.91102e-05
0.00131586
2.5299e-05
0.00129383
2.20361e-05
0.00127455
1.92787e-05
0.00125757
1.69789e-05
0.00124249
1.50814e-05
0.00122896
1.35227e-05
0.00121671
1.22528e-05
0.00120548
1.12316e-05
0.00119506
1.0422e-05
0.00118527
9.78878e-06
0.00117597
9.29928e-06
0.00116705
8.92445e-06
0.00115841
8.63948e-06
0.00114998
8.42379e-06
0.00114172
8.26054e-06
0.00113359
8.13617e-06
0.00112555
8.03983e-06
0.00111758
7.963e-06
0.00110968
7.89912e-06
0.00110184
7.84324e-06
0.00109405
7.79176e-06
0.00108631
7.74217e-06
0.00107861
7.69285e-06
0.00107097
7.64283e-06
0.00106338
7.59168e-06
0.00105584
7.53935e-06
0.00104835
7.48607e-06
0.00104092
7.43226e-06
0.00103354
7.37851e-06
0.00102622
7.32545e-06
0.00101894
7.27377e-06
0.00101172
7.2242e-06
0.00100454
7.17742e-06
0.000997408
7.13415e-06
0.000990313
7.09503e-06
0.000983252
7.0607e-06
0.000976221
7.03174e-06
0.000969212
7.0087e-06
0.00096222
6.99209e-06
0.000955238
6.98235e-06
0.000948258
6.97991e-06
0.000941273
6.9852e-06
0.000934274
6.99863e-06
0.000927253
7.02062e-06
0.000920202
7.05157e-06
0.00091311
7.09185e-06
0.000905968
7.14183e-06
0.000898766
7.20188e-06
0.000891494
7.27238e-06
0.00088414
7.35368e-06
0.000876694
7.44615e-06
0.000869144
7.55019e-06
0.000861478
7.66616e-06
0.000853683
7.79448e-06
0.000845748
7.93552e-06
0.000837658
8.08971e-06
0.0008294
8.25744e-06
0.000820961
8.43914e-06
0.000812326
8.63521e-06
0.00080348
8.84608e-06
0.000794408
9.07216e-06
0.000785094
9.31385e-06
0.000775522
9.57153e-06
0.000765677
9.84558e-06
0.000755541
1.01363e-05
0.000745096
1.04441e-05
0.000734327
1.0769e-05
0.000723216
1.11114e-05
0.000711745
1.14714e-05
0.000699896
1.18488e-05
0.000687652
1.22436e-05
0.000674997
1.26556e-05
0.000661912
1.30843e-05
0.000648383
1.35293e-05
0.000634393
1.399e-05
0.000619928
1.44653e-05
0.000604974
1.49539e-05
0.00058952
1.54542e-05
0.000573555
1.59644e-05
0.000557073
1.64823e-05
0.000540068
1.70051e-05
0.000522538
1.75296e-05
0.000504486
1.80523e-05
0.000485917
1.85689e-05
0.000466842
1.90746e-05
0.000447278
1.95641e-05
0.000427247
2.00317e-05
0.000406776
2.04708e-05
0.000385901
2.08747e-05
0.000364665
2.12358e-05
0.000343119
2.15467e-05
0.000321319
2.17995e-05
0.000299333
2.19863e-05
0.000277233
2.20998e-05
0.0002551
2.21328e-05
0.000233021
2.20793e-05
0.000211087
2.19343e-05
0.000189392
2.16943e-05
0.000168035
2.1357e-05
0.000147113
2.0922e-05
0.000126723
2.039e-05
0.000106961
1.97628e-05
8.79182e-05
1.90425e-05
6.96876e-05
1.82305e-05
5.23605e-05
1.73271e-05
3.60282e-05
1.63323e-05
2.07805e-05
1.52477e-05
6.6997e-06
1.40808e-05
-6.15309e-06
1.28528e-05
-1.77451e-05
1.1592e-05
-2.80824e-05
1.03373e-05
-3.72181e-05
9.13571e-06
-4.52363e-05
8.01815e-06
-5.22201e-05
6.9838e-06
-5.82194e-05
5.99929e-06
-6.32401e-05
5.02069e-06
-6.72616e-05
4.02155e-06
-7.02911e-05
3.02944e-06
-7.24247e-05
2.13364e-06
-7.38385e-05
1.41372e-06
-7.47035e-05
8.65072e-07
-7.5087e-05
3.83482e-07
-7.49964e-05
-9.06725e-08
-7.4467e-05
-5.29362e-07
-7.3557e-05
-9.10034e-07
-7.2202e-05
-1.35498e-06
-7.01889e-05
-2.01314e-06
-2.84316e-06
-6.73458e-05
0.00503752
3.80749e-05
0.0050774
9.85349e-05
0.00509715
0.00013572
0.00510102
0.000152795
0.00509795
0.000161096
0.00509063
0.000168478
0.0050778
0.000176757
0.00505833
0.000184798
0.00503218
0.00019126
0.005
0.000195672
0.00496268
0.000198302
0.00492096
0.000199591
0.00487537
0.000199809
0.00482632
0.000199042
0.00477418
0.000197273
0.00471935
0.000194459
0.0046622
0.000190594
0.00460311
0.000185744
0.00454259
0.000180009
0.00448106
0.000173464
0.00441894
0.0001662
0.00435661
0.000158338
0.00429445
0.00015002
0.00423282
0.000141403
0.00417203
0.000132646
0.00411236
0.000123904
0.00405405
0.000115322
0.0039973
0.000107028
0.00394227
9.91268e-05
0.00388906
9.1701e-05
0.00383776
8.48068e-05
0.00378839
7.84787e-05
0.00374096
7.2727e-05
0.00369545
6.7547e-05
0.00365181
6.29164e-05
0.00360998
5.88146e-05
0.00356981
5.5247e-05
0.00353128
5.20524e-05
0.00349431
4.92238e-05
0.00345881
4.6737e-05
0.00342467
4.45543e-05
0.00339182
4.26378e-05
0.00336017
4.09517e-05
0.00332963
3.94631e-05
0.00330013
3.81424e-05
0.00327159
3.69639e-05
0.00324395
3.59055e-05
0.00321713
3.49483e-05
0.0031911
3.40763e-05
0.00316578
3.32761e-05
0.00314115
3.25366e-05
0.00311714
3.18488e-05
0.00309373
3.12053e-05
0.00307087
3.06005e-05
0.00304853
3.00296e-05
0.00302669
2.94893e-05
0.0030053
2.8977e-05
0.00298435
2.84905e-05
0.00296381
2.80287e-05
0.00294365
2.75905e-05
0.00292385
2.71752e-05
0.00290439
2.67827e-05
0.00288526
2.64128e-05
0.00286641
2.60655e-05
0.00284785
2.5741e-05
0.00282955
2.54396e-05
0.00281148
2.51617e-05
0.00279363
2.49077e-05
0.00277599
2.4678e-05
0.00275852
2.44732e-05
0.00274122
2.42937e-05
0.00272406
2.414e-05
0.00270703
2.40125e-05
0.0026901
2.39119e-05
0.00267326
2.38388e-05
0.00265649
2.3794e-05
0.00263976
2.37782e-05
0.00262306
2.3792e-05
0.00260637
2.38364e-05
0.00258966
2.39122e-05
0.00257291
2.40203e-05
0.0025561
2.41616e-05
0.00253921
2.43371e-05
0.00252221
2.45479e-05
0.00250508
2.47952e-05
0.0024878
2.50801e-05
0.00247033
2.54038e-05
0.00245265
2.57678e-05
0.00243474
2.61733e-05
0.00241655
2.6622e-05
0.00239807
2.71152e-05
0.00237926
2.76546e-05
0.00236009
2.82418e-05
0.00234053
2.88786e-05
0.00232053
2.95666e-05
0.00230007
3.03077e-05
0.00227911
3.11037e-05
0.00225759
3.19564e-05
0.00223549
3.28676e-05
0.00221277
3.38393e-05
0.00218936
3.4873e-05
0.00216524
3.59705e-05
0.00214035
3.71334e-05
0.00211465
3.83629e-05
0.00208807
3.96594e-05
0.00206057
4.10254e-05
0.0020321
4.24615e-05
0.0020026
4.39677e-05
0.00197201
4.55441e-05
0.00194028
4.71898e-05
0.00190734
4.89044e-05
0.00187313
5.0686e-05
0.0018376
5.25319e-05
0.0018007
5.44385e-05
0.00176235
5.6401e-05
0.0017225
5.84133e-05
0.00168111
6.0468e-05
0.00163812
6.25562e-05
0.00159348
6.46671e-05
0.00154716
6.6788e-05
0.00149914
6.89041e-05
0.00144937
7.0998e-05
0.00139787
7.30502e-05
0.00134463
7.50382e-05
0.00128968
7.6937e-05
0.00123306
7.87183e-05
0.00117484
8.03513e-05
0.00111512
8.18022e-05
0.00105402
8.30341e-05
0.000991707
8.40081e-05
0.000928381
8.46831e-05
0.000864286
8.5017e-05
0.000799708
8.49678e-05
0.000734975
8.44953e-05
0.000670455
8.35629e-05
0.000606545
8.21407e-05
0.000543664
8.02079e-05
0.000482238
7.77579e-05
0.000422684
7.48018e-05
0.000365391
7.1374e-05
0.000310711
6.75334e-05
0.000258941
6.3362e-05
0.000210323
5.89547e-05
0.000165048
5.44109e-05
0.000123254
4.98123e-05
8.50253e-05
4.52123e-05
5.03715e-05
4.0653e-05
1.92856e-05
3.61066e-05
-8.15839e-06
3.14656e-05
-3.20952e-05
2.69662e-05
-5.27442e-05
2.27826e-05
-7.05e-05
1.91695e-05
-8.55842e-05
1.59492e-05
-9.81286e-05
1.29279e-05
-0.000108265
1.00452e-05
-0.000116205
7.41114e-06
-0.000122196
5.08127e-06
-0.000126334
2.78259e-06
-0.000128529
1.81466e-07
-2.59457e-06
-0.000128777
0.00501445
2.36273e-05
0.00504447
6.85094e-05
0.00507418
0.000106011
0.00509859
0.000128388
0.00511781
0.000141877
0.00513503
0.000151254
0.00515196
0.000159828
0.00516818
0.000168576
0.00518272
0.000176724
0.00519492
0.000183472
0.00520465
0.000188572
0.00521208
0.000192158
0.0052174
0.000194495
0.00522066
0.000195784
0.00522183
0.000196102
0.00522084
0.000195444
0.00521764
0.000193794
0.00521223
0.000191159
0.00520467
0.000187567
0.00519502
0.000183107
0.00518337
0.000177854
0.0051698
0.000171904
0.00515445
0.000165376
0.00513745
0.000158404
0.00511897
0.000151128
0.00509918
0.000143693
0.00507827
0.000136234
0.00505642
0.000128878
0.00503381
0.000121737
0.0050106
0.000114901
0.00498697
0.000108443
0.00496304
0.000102411
0.00493893
9.68357e-05
0.00491474
9.17314e-05
0.00489056
8.70971e-05
0.00486646
8.29224e-05
0.00484252
7.91804e-05
0.00481876
7.58162e-05
0.00479519
7.27958e-05
0.00477183
7.00944e-05
0.0047487
6.76845e-05
0.0047258
6.5536e-05
0.00470313
6.36175e-05
0.0046807
6.18993e-05
0.00465849
6.0354e-05
0.00463649
5.89572e-05
0.00461471
5.76875e-05
0.00459313
5.65262e-05
0.00457175
5.54575e-05
0.00455056
5.4468e-05
0.00452955
5.35462e-05
0.00450872
5.26828e-05
0.00448805
5.18702e-05
0.00446755
5.11023e-05
0.00444721
5.03742e-05
0.00442701
4.96823e-05
0.00440697
4.90236e-05
0.00438706
4.83962e-05
0.00436729
4.77986e-05
0.00434765
4.723e-05
0.00432814
4.66899e-05
0.00430874
4.61782e-05
0.00428946
4.56951e-05
0.00427028
4.52408e-05
0.00425121
4.4816e-05
0.00423223
4.44214e-05
0.00421333
4.40578e-05
0.00419451
4.37261e-05
0.00417576
4.34273e-05
0.00415707
4.31625e-05
0.00413843
4.29331e-05
0.00411983
4.27395e-05
0.00410126
4.25831e-05
0.00408271
4.24653e-05
0.00406416
4.23874e-05
0.0040456
4.23509e-05
0.00402703
4.23572e-05
0.00400841
4.24081e-05
0.00398974
4.2505e-05
0.003971
4.26499e-05
0.00395218
4.28445e-05
0.00393325
4.30907e-05
0.0039142
4.33906e-05
0.003895
4.37463e-05
0.00387563
4.41602e-05
0.00385608
4.46346e-05
0.00383631
4.51719e-05
0.0038163
4.5775e-05
0.00379603
4.64466e-05
0.00377546
4.71895e-05
0.00375457
4.8007e-05
0.00373332
4.89022e-05
0.00371169
4.98786e-05
0.00368963
5.09396e-05
0.0036671
5.2089e-05
0.00364408
5.33305e-05
0.00362052
5.46683e-05
0.00359637
5.61063e-05
0.00357158
5.76489e-05
0.00354612
5.93002e-05
0.00351993
6.10648e-05
0.00349295
6.29471e-05
0.00346514
6.49514e-05
0.00343642
6.70821e-05
0.00340673
6.93436e-05
0.00337602
7.17405e-05
0.0033442
7.42773e-05
0.00331121
7.69578e-05
0.00327697
7.97853e-05
0.0032414
8.27623e-05
0.00320441
8.5893e-05
0.00316592
8.91793e-05
0.00312583
9.26221e-05
0.00308404
9.62217e-05
0.00304047
9.99772e-05
0.00299499
0.000103886
0.00294752
0.000107944
0.00289793
0.000112145
0.00284612
0.000116482
0.00279196
0.000120942
0.00273535
0.000125513
0.00267617
0.000130178
0.00261431
0.000134914
0.00254965
0.000139698
0.00248209
0.000144499
0.00241152
0.000149281
0.00233787
0.000154004
0.00226105
0.000158619
0.00218102
0.000163073
0.00209772
0.000167303
0.00201117
0.000171239
0.00192138
0.000174802
0.00182844
0.000177907
0.00173247
0.000180465
0.00163366
0.000182378
0.00153225
0.000183546
0.0014286
0.000183861
0.00132314
0.00018322
0.00121641
0.000181523
0.0011091
0.000178683
0.00100201
0.000174631
0.000896048
0.000169322
0.000792255
0.000162748
0.000691723
0.000154943
0.00059554
0.000145995
0.000504701
0.000136051
0.000420038
0.000125316
0.000342089
0.000114056
0.000270942
0.000102612
0.000206552
9.13566e-05
0.000148741
8.05934e-05
9.74148e-05
7.04959e-05
5.22183e-05
6.11457e-05
1.30625e-05
5.20837e-05
-2.04347e-05
4.35424e-05
-4.87857e-05
3.57621e-05
-7.26926e-05
2.89881e-05
-9.24906e-05
2.25806e-05
-0.000108364
1.60548e-05
9.59623e-06
-0.000120555
0.00500634
1.72885e-05
0.00502385
5.09992e-05
0.00504705
8.28146e-05
0.00506939
0.000106043
0.00508908
0.000122188
0.00510685
0.000133478
0.00512443
0.000142249
0.00514265
0.000150363
0.00516108
0.000158285
0.00517925
0.000165303
0.00519682
0.000171003
0.00521368
0.000175303
0.00522985
0.000178325
0.00524536
0.00018027
0.00526017
0.000181294
0.00527418
0.000181439
0.00528726
0.000180714
0.00529929
0.000179122
0.00531018
0.000176682
0.00531983
0.000173452
0.00532819
0.000169499
0.00533519
0.000164905
0.0053408
0.000159764
0.00534502
0.000154185
0.00534786
0.000148282
0.00534938
0.000142174
0.00534964
0.000135976
0.00534872
0.000129797
0.00534672
0.000123736
0.00534375
0.000117877
0.0053399
0.000112289
0.00533529
0.000107021
0.00533001
0.000102111
0.00532417
9.75787e-05
0.00531783
9.34303e-05
0.0053111
8.96589e-05
0.00530403
8.62478e-05
0.00529667
8.31755e-05
0.00528905
8.04145e-05
0.00528121
7.79394e-05
0.00527317
7.57266e-05
0.00526495
7.37519e-05
0.00525658
7.19902e-05
0.00524806
7.04165e-05
0.00523941
6.90073e-05
0.00523062
6.77407e-05
0.00522171
6.65973e-05
0.00521268
6.556e-05
0.00520352
6.46138e-05
0.00519424
6.37461e-05
0.00518484
6.2946e-05
0.00517532
6.22045e-05
0.00516568
6.15138e-05
0.00515591
6.0868e-05
0.00514603
6.02621e-05
0.00513602
5.96923e-05
0.00512588
5.91557e-05
0.00511563
5.86502e-05
0.00510525
5.81744e-05
0.00509476
5.77272e-05
0.00508414
5.73085e-05
0.0050734
5.6918e-05
0.00506254
5.65561e-05
0.00505155
5.62235e-05
0.00504045
5.59209e-05
0.00502922
5.56493e-05
0.00501787
5.54098e-05
0.00500639
5.52039e-05
0.00499479
5.5033e-05
0.00498305
5.48986e-05
0.00497118
5.48025e-05
0.00495917
5.4746e-05
0.00494703
5.47308e-05
0.00493473
5.47589e-05
0.00492229
5.48326e-05
0.00490968
5.49538e-05
0.00489692
5.51248e-05
0.00488398
5.5348e-05
0.00487086
5.56259e-05
0.00485755
5.59611e-05
0.00484403
5.63563e-05
0.00483031
5.68145e-05
0.00481636
5.73386e-05
0.00480218
5.79319e-05
0.00478774
5.85977e-05
0.00477303
5.93397e-05
0.00475804
6.01616e-05
0.00474275
6.10673e-05
0.00472714
6.20611e-05
0.00471118
6.31474e-05
0.00469486
6.43307e-05
0.00467814
6.56159e-05
0.00466101
6.70082e-05
0.00464344
6.8513e-05
0.00462539
7.01359e-05
0.00460684
7.18828e-05
0.00458775
7.37598e-05
0.00456808
7.57735e-05
0.0045478
7.79305e-05
0.00452686
8.02378e-05
0.00450522
8.27026e-05
0.00448284
8.53322e-05
0.00445966
8.81343e-05
0.00443562
9.11168e-05
0.00441068
9.42876e-05
0.00438476
9.76551e-05
0.00435781
0.000101227
0.00432976
0.000105013
0.00430052
0.000109019
0.00427003
0.000113255
0.00423819
0.000117728
0.00420493
0.000122446
0.00417013
0.000127416
0.00413371
0.000132643
0.00409556
0.000138134
0.00405555
0.000143892
0.00401357
0.00014992
0.0039695
0.00015622
0.00392319
0.000162789
0.00387451
0.000169626
0.0038233
0.000176723
0.0037694
0.000184071
0.00371266
0.000191657
0.0036529
0.000199463
0.00358993
0.000207466
0.00352357
0.000215635
0.00345364
0.000223936
0.00337994
0.000232325
0.00330226
0.000240748
0.00322042
0.000249145
0.00313421
0.000257442
0.00304346
0.000265554
0.00294799
0.000273376
0.00284765
0.000280805
0.0027423
0.000287728
0.00263185
0.000294003
0.00251623
0.000299481
0.00239545
0.000304001
0.00226958
0.000307391
0.00213879
0.00030947
0.00200337
0.000310051
0.00186374
0.000308947
0.00172051
0.000305987
0.00157445
0.000301003
0.0014266
0.000293839
0.00127829
0.000284364
0.00113111
0.0002725
0.000986908
0.000258253
0.000847775
0.000241744
0.000715881
0.000223251
0.00059326
0.000203214
0.000481533
0.000182224
0.000381735
0.000160943
0.000293682
0.000140137
0.000216645
0.000120579
0.000149586
0.000102821
9.1519e-05
8.70554e-05
4.1703e-05
7.23966e-05
-5.82017e-07
5.83399e-05
4.50473e-05
-3.60331e-05
0.00500365
1.36379e-05
0.00501435
4.03032e-05
0.00503119
6.59761e-05
0.00504934
8.78854e-05
0.00506702
0.00010451
0.00508362
0.000116875
0.00509961
0.000126268
0.0051158
0.000134164
0.00513256
0.000141532
0.00514965
0.000148213
0.00516675
0.000153906
0.00518365
0.000158395
0.0052003
0.000161682
0.00521666
0.000163903
0.00523276
0.000165199
0.00524854
0.000165659
0.00526393
0.000165325
0.00527883
0.000164222
0.00529313
0.000162374
0.00530676
0.000159824
0.00531963
0.000156632
0.00533166
0.00015287
0.00534281
0.000148619
0.00535303
0.000143969
0.00536229
0.000139016
0.00537061
0.000133858
0.00537799
0.000128593
0.00538448
0.000123312
0.00539011
0.0001181
0.00539496
0.000113031
0.00539908
0.000108165
0.00540255
0.00010355
0.00540544
9.92219e-05
0.00540782
9.52014e-05
0.00540975
9.14984e-05
0.0054113
8.81121e-05
0.00541251
8.50351e-05
0.00541343
8.22559e-05
0.00541409
7.97559e-05
0.00541452
7.7514e-05
0.00541473
7.55091e-05
0.00541477
7.3721e-05
0.00541463
7.21292e-05
0.00541433
7.07135e-05
0.00541388
6.94538e-05
0.00541329
6.83314e-05
0.00541256
6.7329e-05
0.00541169
6.64312e-05
0.00541068
6.56244e-05
0.00540953
6.48968e-05
0.00540824
6.42382e-05
0.0054068
6.36401e-05
0.00540522
6.3095e-05
0.00540349
6.2597e-05
0.00540161
6.21413e-05
0.00539958
6.17237e-05
0.00539739
6.13415e-05
0.00539505
6.09923e-05
0.00539255
6.06745e-05
0.00538989
6.03872e-05
0.00538707
6.01298e-05
0.00538409
5.99022e-05
0.00538094
5.97047e-05
0.00537762
5.95378e-05
0.00537414
5.94024e-05
0.00537049
5.92996e-05
0.00536667
5.92307e-05
0.00536268
5.91971e-05
0.00535851
5.92004e-05
0.00535417
5.92424e-05
0.00534964
5.9325e-05
0.00534494
5.945e-05
0.00534005
5.96195e-05
0.00533497
5.98359e-05
0.0053297
6.01015e-05
0.00532424
6.04191e-05
0.00531857
6.07912e-05
0.0053127
6.12208e-05
0.00530662
6.1711e-05
0.00530031
6.22648e-05
0.00529378
6.28857e-05
0.00528702
6.35772e-05
0.00528001
6.43432e-05
0.00527276
6.51875e-05
0.00526524
6.61144e-05
0.00525745
6.71283e-05
0.00524938
6.82339e-05
0.00524101
6.94362e-05
0.00523233
7.07403e-05
0.00522333
7.21518e-05
0.00521398
7.36766e-05
0.00520428
7.53208e-05
0.0051942
7.70908e-05
0.00518372
7.89935e-05
0.00517282
8.10361e-05
0.00516147
8.32262e-05
0.00514966
8.55717e-05
0.00513735
8.80809e-05
0.00512452
9.07627e-05
0.00511113
9.36261e-05
0.00509715
9.66807e-05
0.00508255
9.99366e-05
0.00506728
0.000103404
0.0050513
0.000107094
0.00503457
0.000111017
0.00501704
0.000115185
0.00499866
0.00011961
0.00497937
0.000124304
0.00495911
0.000129279
0.00493782
0.000134549
0.00491542
0.000140126
0.00489184
0.000146022
0.00486701
0.00015225
0.00484083
0.000158823
0.00481321
0.000165753
0.00478405
0.00017305
0.00475325
0.000180726
0.00472068
0.000188789
0.00468622
0.000197247
0.00464974
0.000206107
0.00461109
0.000215372
0.00457012
0.000225043
0.00452666
0.000235119
0.00448053
0.000245593
0.00443154
0.000256456
0.00437948
0.00026769
0.00432415
0.000279273
0.00426529
0.000291177
0.00420268
0.000303363
0.00413604
0.000315782
0.00406511
0.000328377
0.00398958
0.000341076
0.00390917
0.000353792
0.00382355
0.000366429
0.0037324
0.000378878
0.00363539
0.000391005
0.00353221
0.000402662
0.00342254
0.000413679
0.00330606
0.000423868
0.00318251
0.000433021
0.00305165
0.000440907
0.00291334
0.000447257
0.00276751
0.000451816
0.00261419
0.00045433
0.00245354
0.00045448
0.00228595
0.000451954
0.002112
0.00044645
0.00193256
0.000437695
0.00174884
0.000425467
0.00156248
0.000409606
0.00137569
0.000390005
0.00119126
0.000366656
0.0010125
0.000339705
0.000843078
0.000309558
0.000686665
0.000276992
0.000546306
0.00024318
0.000423898
0.000209464
0.000319108
0.000177187
0.000229934
0.000147514
0.000121152
0.000153829
0.00500249
1.11485e-05
0.00500982
3.29723e-05
0.00502171
5.40913e-05
0.00503621
7.33814e-05
0.00505142
8.93032e-05
0.00506648
0.000101814
0.00508114
0.000111609
0.00509573
0.000119566
0.00511075
0.000126517
0.00512619
0.000132768
0.00514189
0.000138212
0.00515762
0.000142662
0.00517324
0.00014606
0.00518869
0.000148451
0.00520396
0.000149932
0.00521902
0.0001506
0.00523382
0.000150523
0.0052483
0.000149744
0.00526237
0.0001483
0.00527597
0.000146229
0.00528902
0.000143584
0.00530146
0.000140427
0.00531325
0.00013683
0.00532435
0.000132871
0.00533473
0.000128631
0.00534439
0.000124195
0.00535334
0.000119643
0.0053616
0.000115056
0.00536919
0.000110506
0.00537617
0.000106056
0.00538257
0.000101761
0.00538846
9.76651e-05
0.00539388
9.38002e-05
0.00539889
9.01883e-05
0.00540355
8.68418e-05
0.00540789
8.37647e-05
0.00541197
8.09552e-05
0.00541582
7.84063e-05
0.00541947
7.61057e-05
0.00542295
7.40373e-05
0.00542628
7.21838e-05
0.00542947
7.05281e-05
0.00543255
6.90533e-05
0.00543552
6.77427e-05
0.00543839
6.65796e-05
0.00544117
6.55481e-05
0.00544387
6.46332e-05
0.00544648
6.38212e-05
0.005449
6.31e-05
0.00545144
6.24587e-05
0.00545379
6.18879e-05
0.00545605
6.13797e-05
0.00545822
6.09271e-05
0.00546029
6.05245e-05
0.00546227
6.01669e-05
0.00546414
5.98507e-05
0.00546591
5.95727e-05
0.00546757
5.93308e-05
0.00546912
5.91231e-05
0.00547056
5.89486e-05
0.00547188
5.88068e-05
0.00547309
5.86973e-05
0.00547417
5.86205e-05
0.00547513
5.85768e-05
0.00547597
5.85671e-05
0.00547668
5.85924e-05
0.00547725
5.8654e-05
0.0054777
5.87533e-05
0.005478
5.88921e-05
0.00547817
5.90722e-05
0.0054782
5.92955e-05
0.00547809
5.95641e-05
0.00547783
5.98804e-05
0.00547742
6.02468e-05
0.00547685
6.0666e-05
0.00547613
6.11408e-05
0.00547525
6.16741e-05
0.0054742
6.22692e-05
0.00547298
6.29294e-05
0.00547159
6.36583e-05
0.00547001
6.44596e-05
0.00546825
6.53373e-05
0.0054663
6.62956e-05
0.00546415
6.7339e-05
0.00546179
6.84722e-05
0.00545922
6.97001e-05
0.00545643
7.10281e-05
0.0054534
7.24618e-05
0.00545013
7.4007e-05
0.00544662
7.56701e-05
0.00544284
7.74577e-05
0.00543878
7.93768e-05
0.00543444
8.14347e-05
0.00542979
8.36393e-05
0.00542483
8.59989e-05
0.00541953
8.85222e-05
0.00541388
9.12183e-05
0.00540787
9.4097e-05
0.00540146
9.71683e-05
0.00539465
0.000100443
0.00538739
0.000103932
0.00537968
0.000107648
0.00537148
0.000111603
0.00536277
0.000115809
0.0053535
0.00012028
0.00534366
0.000125031
0.00533319
0.000130075
0.00532207
0.000135428
0.00531024
0.000141106
0.00529767
0.000147124
0.0052843
0.0001535
0.00527007
0.00016025
0.00525493
0.000167391
0.00523881
0.000174941
0.00522164
0.000182918
0.00520336
0.000191338
0.00518386
0.000200219
0.00516307
0.000209577
0.00514089
0.000219429
0.00511721
0.000229788
0.00509191
0.00024067
0.00506487
0.000252084
0.00503595
0.000264041
0.005005
0.000276547
0.00497185
0.000289606
0.00493632
0.000303217
0.00489822
0.000317373
0.00485733
0.000332062
0.00481343
0.000347266
0.00476625
0.000362958
0.00471553
0.0003791
0.00466096
0.000395646
0.00460222
0.000412535
0.00453895
0.000429698
0.00447078
0.000447045
0.00439731
0.000464474
0.00431811
0.000481861
0.00423273
0.000499061
0.00414069
0.000515906
0.00404151
0.000532205
0.00393468
0.000547735
0.00381969
0.000562246
0.00369604
0.000575468
0.00356327
0.000587103
0.00342094
0.000596812
0.00326867
0.00060422
0.00310619
0.000608931
0.00293339
0.000610497
0.00275036
0.000608498
0.00255741
0.000602551
0.00235524
0.000592179
0.00214493
0.000576962
0.00192807
0.000556569
0.00170682
0.000530805
0.00148422
0.000499596
0.00126435
0.000463048
0.0010523
0.00042151
0.000853734
0.000375754
0.000674029
0.000327219
0.000278105
0.000517076
0.00500185
9.29999e-06
0.00500728
2.75392e-05
0.00501604
4.53329e-05
0.00502755
6.18694e-05
0.00504038
7.64714e-05
0.00505372
8.84769e-05
0.00506711
9.82163e-05
0.00508051
0.000106167
0.00509415
0.000112874
0.00510819
0.000118736
0.00512255
0.000123849
0.00513708
0.000128133
0.00515162
0.000131516
0.00516608
0.000133993
0.0051804
0.000135612
0.00519455
0.000136453
0.00520849
0.000136587
0.00522216
0.000136074
0.0052355
0.000134956
0.00524845
0.000133277
0.00526095
0.000131083
0.00527295
0.000128428
0.00528441
0.000125375
0.00529529
0.00012199
0.00530557
0.000118345
0.00531526
0.000114511
0.00532434
0.000110559
0.00533284
0.000106556
0.00534078
0.000102566
0.0053482
9.8644e-05
0.00535512
9.48382e-05
0.0053616
9.11882e-05
0.00536767
8.77243e-05
0.00537339
8.44685e-05
0.0053788
8.14346e-05
0.00538393
7.86297e-05
0.00538883
7.60553e-05
0.00539353
7.37076e-05
0.00539806
7.15788e-05
0.00540244
6.9657e-05
0.00540669
6.79289e-05
0.00541084
6.63804e-05
0.0054149
6.49977e-05
0.00541887
6.37667e-05
0.00542278
6.26738e-05
0.00542662
6.17055e-05
0.00543041
6.08489e-05
0.00543414
6.00921e-05
0.00543781
5.94243e-05
0.00544143
5.88357e-05
0.005445
5.83179e-05
0.00544852
5.78635e-05
0.00545198
5.74662e-05
0.00545539
5.71206e-05
0.00545873
5.68221e-05
0.00546201
5.65671e-05
0.00546523
5.63527e-05
0.00546839
5.61766e-05
0.00547147
5.60373e-05
0.00547449
5.59335e-05
0.00547743
5.58646e-05
0.0054803
5.58305e-05
0.00548309
5.58313e-05
0.0054858
5.58675e-05
0.00548842
5.59398e-05
0.00549097
5.60493e-05
0.00549342
5.61973e-05
0.00549579
5.63853e-05
0.00549807
5.6615e-05
0.00550025
5.68881e-05
0.00550234
5.72069e-05
0.00550433
5.75734e-05
0.00550622
5.79902e-05
0.00550801
5.84598e-05
0.00550969
5.89849e-05
0.00551126
5.95685e-05
0.00551272
6.02138e-05
0.00551407
6.09241e-05
0.00551529
6.1703e-05
0.0055164
6.25542e-05
0.00551738
6.34817e-05
0.00551822
6.44898e-05
0.00551894
6.55829e-05
0.00551951
6.67659e-05
0.00551994
6.80436e-05
0.00552022
6.94215e-05
0.00552034
7.09053e-05
0.0055203
7.25008e-05
0.00552009
7.42145e-05
0.00551971
7.60531e-05
0.00551914
7.80236e-05
0.00551839
8.01336e-05
0.00551743
8.23911e-05
0.00551627
8.48044e-05
0.00551488
8.73826e-05
0.00551327
9.01349e-05
0.00551142
9.30714e-05
0.00550931
9.62024e-05
0.00550694
9.95392e-05
0.00550429
0.000103093
0.00550135
0.000106877
0.00549809
0.000110903
0.00549451
0.000115185
0.00549058
0.000119738
0.00548628
0.000124575
0.0054816
0.000129714
0.00547651
0.00013517
0.00547097
0.00014096
0.00546498
0.000147102
0.00545849
0.000153615
0.00545147
0.000160517
0.00544389
0.000167829
0.00543571
0.000175571
0.00542689
0.000183763
0.00541738
0.000192427
0.00540713
0.000201585
0.00539609
0.000211259
0.0053842
0.000221471
0.00537139
0.000232241
0.00535758
0.000243594
0.0053427
0.000255548
0.00532666
0.000268125
0.00530936
0.000281342
0.00529069
0.000295219
0.00527053
0.000309768
0.00524874
0.000325003
0.00522518
0.000340933
0.00519968
0.000357561
0.00517206
0.000374887
0.00514211
0.000392906
0.00510961
0.000411602
0.0050743
0.000430954
0.00503591
0.000450932
0.00499411
0.000471491
0.00494858
0.000492578
0.00489893
0.000514123
0.00484475
0.00053604
0.00478559
0.000558223
0.00472095
0.000580546
0.0046503
0.000602857
0.00457305
0.00062498
0.00448859
0.000646709
0.00439625
0.000667807
0.00429535
0.000688003
0.00418518
0.000706987
0.004065
0.000724402
0.00393408
0.000739846
0.00379171
0.000752868
0.00363721
0.000762994
0.00347005
0.000769711
0.00328978
0.00077245
0.00309614
0.000770601
0.00288921
0.000763499
0.0026694
0.000750621
0.00243763
0.000731369
0.00219551
0.000705161
0.00194542
0.000671605
0.00169059
0.00063058
0.0014356
0.000582207
0.000526976
0.00118673
0.00500144
7.86112e-06
0.00500568
2.33028e-05
0.00501255
3.84553e-05
0.00502174
5.26818e-05
0.00503256
6.56472e-05
0.00504425
7.67957e-05
0.00505635
8.61127e-05
0.00506867
9.38467e-05
0.00508122
0.000100326
0.00509409
0.000105866
0.00510729
0.000110647
0.00512073
0.000114695
0.00513428
0.000117969
0.00514782
0.000120447
0.00516129
0.000122147
0.00517462
0.000123121
0.00518777
0.000123433
0.0052007
0.000123144
0.00521335
0.000122303
0.00522567
0.000120956
0.00523761
0.000119147
0.00524911
0.000116923
0.00526015
0.000114338
0.00527069
0.000111451
0.00528071
0.000108322
0.00529021
0.000105014
0.00529918
0.000101587
0.00530764
9.80992e-05
0.0053156
9.46056e-05
0.00532309
9.11549e-05
0.00533014
8.77895e-05
0.00533678
8.45451e-05
0.00534305
8.14498e-05
0.005349
7.8525e-05
0.00535465
7.57853e-05
0.00536004
7.32393e-05
0.0053652
7.08907e-05
0.00537017
6.87384e-05
0.00537497
6.67774e-05
0.00537963
6.49995e-05
0.00538416
6.33948e-05
0.00538859
6.19522e-05
0.00539293
6.06603e-05
0.00539719
5.95077e-05
0.00540138
5.84828e-05
0.00540551
5.75744e-05
0.00540959
5.67716e-05
0.00541362
5.60641e-05
0.0054176
5.54423e-05
0.00542154
5.48977e-05
0.00542543
5.44228e-05
0.00542928
5.40107e-05
0.00543309
5.36557e-05
0.00543686
5.3353e-05
0.00544059
5.30982e-05
0.00544426
5.28882e-05
0.0054479
5.27199e-05
0.00545148
5.25915e-05
0.00545502
5.25012e-05
0.0054585
5.24481e-05
0.00546194
5.24315e-05
0.00546532
5.24513e-05
0.00546864
5.25075e-05
0.00547191
5.26006e-05
0.00547511
5.27316e-05
0.00547826
5.29013e-05
0.00548135
5.3111e-05
0.00548437
5.33624e-05
0.00548733
5.3657e-05
0.00549022
5.39968e-05
0.00549304
5.4384e-05
0.0054958
5.48207e-05
0.00549848
5.53095e-05
0.00550108
5.5853e-05
0.00550362
5.6454e-05
0.00550607
5.71157e-05
0.00550844
5.78413e-05
0.00551073
5.86342e-05
0.00551294
5.94981e-05
0.00551505
6.04369e-05
0.00551708
6.14548e-05
0.00551901
6.25562e-05
0.00552085
6.37456e-05
0.00552259
6.50282e-05
0.00552422
6.64089e-05
0.00552575
6.78935e-05
0.00552717
6.94878e-05
0.00552847
7.1198e-05
0.00552965
7.30307e-05
0.00553072
7.49929e-05
0.00553165
7.7092e-05
0.00553244
7.93358e-05
0.0055331
8.17325e-05
0.00553362
8.4291e-05
0.00553398
8.70206e-05
0.00553418
8.99309e-05
0.00553422
9.30325e-05
0.00553409
9.63361e-05
0.00553377
9.98533e-05
0.00553327
0.000103596
0.00553257
0.000107578
0.00553166
0.000111812
0.00553053
0.000116313
0.00552918
0.000121094
0.00552758
0.000126173
0.00552573
0.000131566
0.00552361
0.000137289
0.00552121
0.000143362
0.00551851
0.000149802
0.00551549
0.000156631
0.00551214
0.000163868
0.00550843
0.000171534
0.00550435
0.000179653
0.00549987
0.000188247
0.00549496
0.000197339
0.00548959
0.000206954
0.00548373
0.000217118
0.00547734
0.000227854
0.0054704
0.00023919
0.00546284
0.000251151
0.00545462
0.000263763
0.0054457
0.000277052
0.005436
0.000291043
0.00542545
0.000305762
0.00541399
0.000321231
0.00540152
0.000337472
0.00538795
0.000354506
0.00537316
0.00037235
0.00535703
0.000391018
0.00533941
0.00041052
0.00532015
0.000430862
0.00529907
0.000452042
0.00527594
0.000474054
0.00525055
0.000496883
0.00522263
0.000520504
0.00519187
0.00054488
0.00515795
0.000569963
0.00512048
0.00059569
0.00507905
0.000621978
0.00503318
0.000648728
0.00498234
0.000675815
0.00492596
0.000703091
0.00486339
0.000730376
0.00479393
0.000757459
0.00471683
0.000784089
0.00463126
0.000809973
0.00453634