/*--------------------------------*- C++ -*----------------------------------*\
| =========                 |                                                 |
| \\      /  F ield         | OpenFOAM: The Open Source CFD Toolbox           |
|  \\    /   O peration     | Version:  2306                                  |
|   \\  /    A nd           | Website:  www.openfoam.com                      |
|    \\/     M anipulation  |                                                 |
\*---------------------------------------------------------------------------*/
FoamFile
{
    version     2.0;
    format      ascii;
    arch        "LSB;label=32;scalar=64";
    class       volVectorField;
    location    "0.3";
    object      U;
}
// * * * * * * * * * * * * * * * * * * * * * * * * * * * * * * * * * * * * * //

dimensions      [0 1 -1 0 0 0 0];

internalField   nonuniform List<vector> 
17600
(
(9.80708 0.0850069 0)
(9.62282 0.1805 0)
(9.41196 0.217949 0)
(9.14628 0.225578 0)
(8.83439 0.2251 0)
(8.49836 0.225385 0)
(8.15616 0.226736 0)
(7.81672 0.227129 0)
(7.48269 0.225219 0)
(7.15415 0.220818 0)
(6.83067 0.214448 0)
(6.51243 0.206753 0)
(6.20026 0.19816 0)
(5.89551 0.188852 0)
(5.59966 0.178847 0)
(5.31425 0.168129 0)
(5.04059 0.156697 0)
(4.78012 0.144613 0)
(4.53373 0.131894 0)
(4.3022 0.118628 0)
(4.0862 0.104998 0)
(3.88621 0.0912593 0)
(3.70252 0.0777049 0)
(3.53514 0.0646288 0)
(3.38384 0.0523004 0)
(3.24812 0.0409456 0)
(3.12726 0.030734 0)
(3.02036 0.0217715 0)
(2.92635 0.0141006 0)
(2.84409 0.00770691 0)
(2.77239 0.00252986 0)
(2.71004 -0.00152468 0)
(2.65585 -0.00457065 0)
(2.6087 -0.00673259 0)
(2.56755 -0.00813304 0)
(2.53143 -0.00889386 0)
(2.49947 -0.00912463 0)
(2.47096 -0.00895621 0)
(2.44526 -0.00850978 0)
(2.42184 -0.00787925 0)
(2.40024 -0.00713369 0)
(2.38008 -0.00632433 0)
(2.36103 -0.00548956 0)
(2.34283 -0.00465793 0)
(2.3253 -0.00385009 0)
(2.30825 -0.00308045 0)
(2.29159 -0.00235865 0)
(2.2752 -0.00169066 0)
(2.25904 -0.00107964 0)
(2.24305 -0.000526534 0)
(2.22719 -3.05483e-05 0)
(2.21145 0.000410481 0)
(2.19582 0.000799707 0)
(2.18029 0.00114095 0)
(2.16486 0.00143841 0)
(2.14953 0.00169645 0)
(2.1343 0.00191944 0)
(2.11917 0.00211159 0)
(2.10414 0.00227691 0)
(2.08923 0.00241914 0)
(2.07442 0.00254174 0)
(2.05972 0.00264784 0)
(2.04512 0.00274029 0)
(2.03063 0.00282161 0)
(2.01623 0.00289407 0)
(2.00192 0.00295967 0)
(1.98769 0.00302015 0)
(1.97354 0.00307707 0)
(1.95945 0.00313175 0)
(1.94541 0.00318533 0)
(1.93141 0.00323878 0)
(1.91744 0.00329289 0)
(1.90348 0.00334835 0)
(1.88952 0.00340584 0)
(1.87554 0.00346603 0)
(1.86153 0.00352954 0)
(1.84746 0.0035969 0)
(1.83332 0.00366859 0)
(1.81909 0.00374504 0)
(1.80475 0.00382661 0)
(1.79028 0.00391366 0)
(1.77566 0.00400648 0)
(1.76086 0.00410535 0)
(1.74587 0.00421055 0)
(1.73066 0.00432228 0)
(1.71521 0.00444078 0)
(1.69948 0.00456621 0)
(1.68346 0.00469874 0)
(1.66712 0.00483851 0)
(1.65043 0.00498562 0)
(1.63336 0.00514013 0)
(1.61589 0.00530208 0)
(1.59798 0.00547144 0)
(1.5796 0.00564815 0)
(1.56072 0.00583206 0)
(1.54131 0.00602296 0)
(1.52133 0.00622054 0)
(1.50076 0.00642441 0)
(1.47956 0.00663402 0)
(1.45768 0.00684871 0)
(1.43511 0.00706763 0)
(1.4118 0.00728972 0)
(1.38772 0.0075137 0)
(1.36283 0.00773802 0)
(1.33709 0.00796096 0)
(1.31049 0.0081811 0)
(1.28298 0.00839703 0)
(1.25453 0.00860691 0)
(1.22512 0.00880858 0)
(1.19472 0.0089996 0)
(1.16331 0.00917734 0)
(1.13087 0.00933878 0)
(1.09739 0.00948037 0)
(1.06286 0.00959797 0)
(1.02728 0.00968707 0)
(0.990663 0.00974293 0)
(0.953021 0.00976063 0)
(0.914381 0.00973517 0)
(0.874781 0.00966164 0)
(0.834272 0.00953544 0)
(0.792918 0.00935247 0)
(0.750795 0.00910953 0)
(0.707998 0.00880463 0)
(0.664633 0.00843743 0)
(0.620825 0.00800977 0)
(0.576713 0.00752612 0)
(0.532452 0.0069941 0)
(0.488207 0.00642485 0)
(0.444158 0.00583322 0)
(0.40049 0.00523753 0)
(0.357397 0.00465877 0)
(0.315073 0.00411887 0)
(0.273714 0.00363794 0)
(0.233511 0.00323067 0)
(0.194652 0.00290232 0)
(0.157324 0.00264508 0)
(0.121709 0.00243537 0)
(0.0879936 0.00223436 0)
(0.05636 0.00199263 0)
(0.0269769 0.00166249 0)
(4.92244e-06 0.00121819 0)
(-0.024448 0.000651197 0)
(-0.0463691 -9.12896e-06 0)
(-0.0658373 -0.000685962 0)
(-0.0829896 -0.00128995 0)
(-0.09799 -0.00174845 0)
(-0.110977 -0.00203975 0)
(-0.122007 -0.00222637 0)
(-0.131037 -0.00242229 0)
(-0.13805 -0.0026332 0)
(-0.143152 -0.00278113 0)
(-0.146648 -0.0027748 0)
(-0.1489 -0.00265419 0)
(-0.150128 -0.0025295 0)
(-0.150393 -0.00245641 0)
(-0.149746 -0.00240322 0)
(-0.148309 -0.00233939 0)
(-0.146079 -0.0023666 0)
(-0.14274 -0.00264592 0)
(-0.137838 -0.00319167 0)
(10.0008 0.122279 0)
(10.0676 0.272137 0)
(10.1383 0.342321 0)
(10.1915 0.367553 0)
(10.2161 0.377243 0)
(10.2123 0.385769 0)
(10.1866 0.395783 0)
(10.1458 0.40522 0)
(10.094 0.411969 0)
(10.033 0.415277 0)
(9.96332 0.41546 0)
(9.88493 0.413208 0)
(9.79809 0.40907 0)
(9.70347 0.403325 0)
(9.60187 0.396017 0)
(9.49434 0.387102 0)
(9.38178 0.376511 0)
(9.26523 0.364236 0)
(9.14543 0.350294 0)
(9.02323 0.334784 0)
(8.89946 0.317889 0)
(8.77495 0.29986 0)
(8.65047 0.280992 0)
(8.52674 0.261606 0)
(8.4044 0.242029 0)
(8.28405 0.222584 0)
(8.16616 0.20357 0)
(8.05117 0.185255 0)
(7.93943 0.167863 0)
(7.8312 0.151568 0)
(7.72666 0.136491 0)
(7.62595 0.122706 0)
(7.52909 0.110234 0)
(7.43609 0.0990656 0)
(7.34685 0.0891493 0)
(7.26132 0.0804195 0)
(7.17927 0.0727859 0)
(7.10057 0.0661695 0)
(7.02505 0.0604906 0)
(6.95255 0.0556602 0)
(6.8829 0.0515812 0)
(6.81592 0.0481532 0)
(6.75143 0.0452792 0)
(6.68925 0.0428699 0)
(6.62923 0.0408466 0)
(6.57121 0.0391413 0)
(6.51505 0.0376964 0)
(6.46062 0.0364639 0)
(6.4078 0.0354036 0)
(6.35648 0.0344823 0)
(6.30655 0.033673 0)
(6.25793 0.0329537 0)
(6.21053 0.0323069 0)
(6.16428 0.0317188 0)
(6.11911 0.0311787 0)
(6.07494 0.0306785 0)
(6.03173 0.0302121 0)
(5.98941 0.0297752 0)
(5.94793 0.0293646 0)
(5.90724 0.0289783 0)
(5.8673 0.0286152 0)
(5.82806 0.0282746 0)
(5.78948 0.0279564 0)
(5.75151 0.0276609 0)
(5.71411 0.0273886 0)
(5.67726 0.0271402 0)
(5.64089 0.0269165 0)
(5.60499 0.0267185 0)
(5.56951 0.0265472 0)
(5.53441 0.0264037 0)
(5.49965 0.0262888 0)
(5.4652 0.0262038 0)
(5.43102 0.0261494 0)
(5.39707 0.0261266 0)
(5.36331 0.0261364 0)
(5.32971 0.02618 0)
(5.29621 0.0262583 0)
(5.2628 0.0263724 0)
(5.22941 0.0265235 0)
(5.19602 0.0267128 0)
(5.16257 0.0269414 0)
(5.12902 0.0272106 0)
(5.09533 0.0275218 0)
(5.06146 0.0278763 0)
(5.02734 0.0282755 0)
(4.99294 0.028721 0)
(4.9582 0.0292143 0)
(4.92306 0.0297571 0)
(4.88748 0.0303509 0)
(4.8514 0.0309976 0)
(4.81475 0.0316988 0)
(4.77747 0.0324565 0)
(4.73951 0.0332725 0)
(4.70079 0.0341486 0)
(4.66125 0.0350868 0)
(4.62081 0.036089 0)
(4.5794 0.0371569 0)
(4.53694 0.0382924 0)
(4.49335 0.0394973 0)
(4.44854 0.0407731 0)
(4.40244 0.0421213 0)
(4.35494 0.0435431 0)
(4.30595 0.0450395 0)
(4.25538 0.046611 0)
(4.20312 0.0482579 0)
(4.14908 0.0499793 0)
(4.09314 0.0517735 0)
(4.0352 0.0536377 0)
(3.97514 0.0555689 0)
(3.91284 0.0575622 0)
(3.8482 0.0596128 0)
(3.78109 0.0617142 0)
(3.7114 0.0638583 0)
(3.639 0.0660358 0)
(3.56377 0.0682355 0)
(3.48562 0.0704441 0)
(3.40441 0.0726459 0)
(3.32006 0.0748231 0)
(3.23247 0.0769551 0)
(3.14155 0.0790185 0)
(3.04723 0.0809871 0)
(2.94946 0.0828318 0)
(2.84821 0.0845207 0)
(2.74348 0.0860191 0)
(2.63529 0.0872901 0)
(2.52371 0.0882949 0)
(2.40885 0.0889933 0)
(2.29087 0.0893452 0)
(2.16999 0.0893107 0)
(2.0465 0.0888527 0)
(1.92075 0.0879372 0)
(1.7932 0.0865365 0)
(1.66437 0.0846312 0)
(1.53488 0.0822131 0)
(1.40542 0.079287 0)
(1.27677 0.075871 0)
(1.14974 0.0719982 0)
(1.02521 0.0677215 0)
(0.904013 0.0631177 0)
(0.786976 0.0582924 0)
(0.674846 0.0533842 0)
(0.56826 0.0485437 0)
(0.467758 0.0439088 0)
(0.373756 0.0395771 0)
(0.286579 0.0355485 0)
(0.206468 0.0317015 0)
(0.133508 0.0278416 0)
(0.0677256 0.0238492 0)
(0.00928204 0.0197621 0)
(-0.0419682 0.0157075 0)
(-0.0864059 0.0119912 0)
(-0.124734 0.00885614 0)
(-0.157534 0.00635569 0)
(-0.18508 0.00416245 0)
(-0.207628 0.00207694 0)
(-0.225567 0.000173258 0)
(-0.239454 -0.0014886 0)
(-0.249593 -0.00332956 0)
(-0.25588 -0.00580419 0)
(-0.258122 -0.00871508 0)
(10.0003 0.0614123 0)
(10.0359 0.160323 0)
(10.0898 0.227823 0)
(10.1516 0.268451 0)
(10.2101 0.293286 0)
(10.2592 0.312151 0)
(10.298 0.330013 0)
(10.3292 0.34748 0)
(10.3556 0.363366 0)
(10.3789 0.376572 0)
(10.3993 0.3867 0)
(10.4165 0.39393 0)
(10.4298 0.398644 0)
(10.4388 0.401151 0)
(10.4433 0.401595 0)
(10.4434 0.399983 0)
(10.4391 0.396276 0)
(10.4303 0.390452 0)
(10.4173 0.382572 0)
(10.4001 0.372765 0)
(10.3788 0.361217 0)
(10.3536 0.34816 0)
(10.3247 0.333864 0)
(10.2925 0.318628 0)
(10.2571 0.302762 0)
(10.2189 0.286581 0)
(10.1783 0.270385 0)
(10.1356 0.254453 0)
(10.0911 0.239023 0)
(10.0453 0.224294 0)
(9.99841 0.21041 0)
(9.95077 0.197474 0)
(9.90262 0.185536 0)
(9.85424 0.174614 0)
(9.80577 0.164686 0)
(9.75742 0.155716 0)
(9.70926 0.147641 0)
(9.66143 0.140409 0)
(9.614 0.133965 0)
(9.56702 0.128244 0)
(9.5205 0.123171 0)
(9.47445 0.118668 0)
(9.42886 0.114656 0)
(9.38374 0.111064 0)
(9.33907 0.107828 0)
(9.29486 0.104893 0)
(9.25107 0.102212 0)
(9.20771 0.0997472 0)
(9.16475 0.0974654 0)
(9.12218 0.0953401 0)
(9.07998 0.0933492 0)
(9.03814 0.0914748 0)
(8.99664 0.0897026 0)
(8.95548 0.0880209 0)
(8.91464 0.0864209 0)
(8.87411 0.0848958 0)
(8.83388 0.0834404 0)
(8.79393 0.0820509 0)
(8.75426 0.0807249 0)
(8.71485 0.0794605 0)
(8.6757 0.0782568 0)
(8.6368 0.0771134 0)
(8.59813 0.0760303 0)
(8.55967 0.0750078 0)
(8.52143 0.0740467 0)
(8.48337 0.0731478 0)
(8.4455 0.0723121 0)
(8.40779 0.0715409 0)
(8.37023 0.0708356 0)
(8.33279 0.0701974 0)
(8.29547 0.069628 0)
(8.25824 0.0691291 0)
(8.22107 0.0687024 0)
(8.18395 0.0683499 0)
(8.14686 0.0680734 0)
(8.10976 0.067875 0)
(8.07263 0.0677565 0)
(8.03544 0.0677202 0)
(7.99816 0.0677683 0)
(7.96076 0.0679031 0)
(7.92321 0.0681273 0)
(7.88546 0.0684435 0)
(7.84749 0.0688545 0)
(7.80925 0.0693635 0)
(7.77069 0.0699737 0)
(7.73178 0.0706886 0)
(7.69247 0.0715119 0)
(7.65271 0.0724474 0)
(7.61244 0.0734993 0)
(7.57161 0.0746719 0)
(7.53017 0.07597 0)
(7.48804 0.0773983 0)
(7.44518 0.0789619 0)
(7.40149 0.0806661 0)
(7.35693 0.0825166 0)
(7.3114 0.0845191 0)
(7.26484 0.0866796 0)
(7.21714 0.0890043 0)
(7.16823 0.0914995 0)
(7.11802 0.0941719 0)
(7.06639 0.0970279 0)
(7.01325 0.100074 0)
(6.95848 0.103318 0)
(6.90198 0.106764 0)
(6.84361 0.110421 0)
(6.78324 0.114293 0)
(6.72075 0.118386 0)
(6.65598 0.122702 0)
(6.58879 0.127247 0)
(6.51902 0.132022 0)
(6.44651 0.137028 0)
(6.37108 0.142263 0)
(6.29255 0.147727 0)
(6.21073 0.153413 0)
(6.12543 0.159314 0)
(6.03644 0.165421 0)
(5.94355 0.17172 0)
(5.84655 0.178194 0)
(5.74522 0.18482 0)
(5.63932 0.191572 0)
(5.52863 0.198416 0)
(5.41291 0.205313 0)
(5.29194 0.212215 0)
(5.16549 0.219068 0)
(5.03333 0.225806 0)
(4.89527 0.232355 0)
(4.75112 0.23863 0)
(4.6007 0.244534 0)
(4.44388 0.249957 0)
(4.28058 0.254777 0)
(4.11073 0.258858 0)
(3.93437 0.262053 0)
(3.7516 0.2642 0)
(3.56262 0.265134 0)
(3.36772 0.264689 0)
(3.16734 0.262707 0)
(2.96208 0.259042 0)
(2.75271 0.25358 0)
(2.54022 0.246248 0)
(2.32581 0.237035 0)
(2.11095 0.226005 0)
(1.89736 0.213306 0)
(1.68702 0.199176 0)
(1.48206 0.183931 0)
(1.28474 0.167946 0)
(1.09722 0.151627 0)
(0.921367 0.13539 0)
(0.758586 0.119685 0)
(0.609606 0.105073 0)
(0.474241 0.0919076 0)
(0.352125 0.0802004 0)
(0.24294 0.0694764 0)
(0.146308 0.0591584 0)
(0.06217 0.0490588 0)
(-0.0101314 0.0392516 0)
(-0.0716394 0.0302231 0)
(-0.123791 0.0221807 0)
(-0.1674 0.0145633 0)
(-0.202853 0.00656024 0)
(-0.230562 -0.00152018 0)
(10.0002 0.0417813 0)
(10.0198 0.117276 0)
(10.0537 0.178916 0)
(10.0983 0.224503 0)
(10.1468 0.25657 0)
(10.1935 0.280049 0)
(10.2355 0.29931 0)
(10.2732 0.316686 0)
(10.3082 0.33256 0)
(10.3422 0.346428 0)
(10.376 0.357802 0)
(10.4096 0.366544 0)
(10.4428 0.372812 0)
(10.4748 0.376857 0)
(10.5055 0.378879 0)
(10.5345 0.378975 0)
(10.5616 0.377183 0)
(10.5867 0.373531 0)
(10.6096 0.368084 0)
(10.6301 0.360951 0)
(10.6482 0.352277 0)
(10.6636 0.342245 0)
(10.6764 0.331066 0)
(10.6863 0.318976 0)
(10.6935 0.306224 0)
(10.698 0.293062 0)
(10.6999 0.27974 0)
(10.6993 0.266485 0)
(10.6964 0.253506 0)
(10.6914 0.240975 0)
(10.6846 0.229033 0)
(10.6761 0.217782 0)
(10.6661 0.207294 0)
(10.6549 0.197605 0)
(10.6427 0.188731 0)
(10.6295 0.180661 0)
(10.6156 0.17337 0)
(10.6011 0.166811 0)
(10.586 0.160925 0)
(10.5705 0.155649 0)
(10.5546 0.150923 0)
(10.5383 0.146687 0)
(10.5217 0.142885 0)
(10.5047 0.139465 0)
(10.4876 0.136377 0)
(10.4701 0.13358 0)
(10.4524 0.131033 0)
(10.4344 0.128703 0)
(10.4162 0.12656 0)
(10.3978 0.124578 0)
(10.3791 0.122737 0)
(10.3602 0.121016 0)
(10.341 0.119402 0)
(10.3216 0.117882 0)
(10.302 0.116445 0)
(10.2821 0.115083 0)
(10.2619 0.11379 0)
(10.2415 0.112562 0)
(10.2209 0.111395 0)
(10.2 0.110287 0)
(10.1789 0.109237 0)
(10.1576 0.108244 0)
(10.136 0.107309 0)
(10.1141 0.106432 0)
(10.092 0.105615 0)
(10.0697 0.104858 0)
(10.0471 0.104165 0)
(10.0243 0.103537 0)
(10.0012 0.102977 0)
(9.97789 0.102487 0)
(9.95428 0.10207 0)
(9.93041 0.10173 0)
(9.90626 0.101469 0)
(9.88182 0.101291 0)
(9.85708 0.1012 0)
(9.83204 0.1012 0)
(9.80667 0.101294 0)
(9.78096 0.101487 0)
(9.75491 0.101784 0)
(9.72848 0.102187 0)
(9.70166 0.102703 0)
(9.67443 0.103335 0)
(9.64676 0.10409 0)
(9.61864 0.104972 0)
(9.59002 0.105988 0)
(9.56088 0.107144 0)
(9.5312 0.108445 0)
(9.50092 0.109899 0)
(9.47002 0.111513 0)
(9.43846 0.113294 0)
(9.40619 0.11525 0)
(9.37316 0.11739 0)
(9.33933 0.119721 0)
(9.30464 0.122254 0)
(9.26904 0.124997 0)
(9.23245 0.127961 0)
(9.19482 0.131156 0)
(9.15608 0.134593 0)
(9.11615 0.138283 0)
(9.07496 0.142238 0)
(9.0324 0.146469 0)
(8.9884 0.150989 0)
(8.94286 0.155811 0)
(8.89567 0.160948 0)
(8.84672 0.166411 0)
(8.7959 0.172215 0)
(8.74307 0.178373 0)
(8.6881 0.184897 0)
(8.63085 0.1918 0)
(8.57117 0.199094 0)
(8.50888 0.206791 0)
(8.44383 0.214899 0)
(8.37583 0.223427 0)
(8.30467 0.232383 0)
(8.23015 0.241771 0)
(8.15205 0.251593 0)
(8.07014 0.261848 0)
(7.98416 0.272532 0)
(7.89386 0.283637 0)
(7.79896 0.295148 0)
(7.69915 0.307045 0)
(7.59414 0.319301 0)
(7.48361 0.331881 0)
(7.3672 0.344742 0)
(7.24458 0.357829 0)
(7.11536 0.371075 0)
(6.97919 0.3844 0)
(6.83567 0.39771 0)
(6.6844 0.410894 0)
(6.525 0.423822 0)
(6.35706 0.436344 0)
(6.18021 0.448291 0)
(5.99409 0.459468 0)
(5.79836 0.469657 0)
(5.59273 0.47861 0)
(5.37696 0.486054 0)
(5.15089 0.491696 0)
(4.91447 0.495225 0)
(4.66775 0.496314 0)
(4.41098 0.494628 0)
(4.14458 0.489832 0)
(3.86927 0.481597 0)
(3.58604 0.46963 0)
(3.29627 0.453709 0)
(3.00175 0.433719 0)
(2.70482 0.409708 0)
(2.40838 0.381948 0)
(2.11592 0.350978 0)
(1.83145 0.317623 0)
(1.55929 0.283039 0)
(1.30375 0.248551 0)
(1.06874 0.215487 0)
(0.856953 0.184849 0)
(0.669594 0.157653 0)
(0.505267 0.134332 0)
(0.361688 0.114341 0)
(0.236539 0.0960162 0)
(0.128856 0.077894 0)
(0.037348 0.0592144 0)
(-0.0397361 0.0408038 0)
(10.0001 0.0316629 0)
(10.0128 0.0917414 0)
(10.036 0.145038 0)
(10.0682 0.188699 0)
(10.1059 0.222283 0)
(10.1451 0.247719 0)
(10.1829 0.267815 0)
(10.2183 0.28487 0)
(10.2517 0.299983 0)
(10.2843 0.313285 0)
(10.3168 0.32452 0)
(10.3498 0.333476 0)
(10.383 0.340137 0)
(10.4162 0.344639 0)
(10.449 0.347161 0)
(10.4811 0.347852 0)
(10.5124 0.346814 0)
(10.5427 0.344127 0)
(10.5719 0.339868 0)
(10.5998 0.334137 0)
(10.6264 0.327062 0)
(10.6514 0.318797 0)
(10.6746 0.309521 0)
(10.6961 0.29943 0)
(10.7157 0.288731 0)
(10.7334 0.277634 0)
(10.7492 0.266347 0)
(10.7632 0.255062 0)
(10.7754 0.243955 0)
(10.7859 0.233178 0)
(10.7948 0.222855 0)
(10.8024 0.213084 0)
(10.8087 0.203933 0)
(10.8139 0.195446 0)
(10.8182 0.187644 0)
(10.8216 0.180526 0)
(10.8242 0.174077 0)
(10.8263 0.168259 0)
(10.8278 0.163028 0)
(10.8289 0.158334 0)
(10.8295 0.15413 0)
(10.8297 0.15037 0)
(10.8295 0.147011 0)
(10.8291 0.144012 0)
(10.8283 0.14133 0)
(10.8273 0.13893 0)
(10.8259 0.136775 0)
(10.8243 0.134835 0)
(10.8224 0.13308 0)
(10.8203 0.131487 0)
(10.8178 0.130034 0)
(10.8151 0.128702 0)
(10.8121 0.127477 0)
(10.8088 0.126346 0)
(10.8052 0.125298 0)
(10.8012 0.124325 0)
(10.797 0.123422 0)
(10.7925 0.122582 0)
(10.7877 0.121802 0)
(10.7825 0.121081 0)
(10.777 0.120417 0)
(10.7712 0.11981 0)
(10.7651 0.119259 0)
(10.7586 0.118767 0)
(10.7518 0.118334 0)
(10.7447 0.117962 0)
(10.7372 0.117654 0)
(10.7294 0.117413 0)
(10.7213 0.117241 0)
(10.7128 0.117142 0)
(10.7039 0.11712 0)
(10.6947 0.117178 0)
(10.6851 0.117321 0)
(10.6751 0.117552 0)
(10.6648 0.117877 0)
(10.654 0.1183 0)
(10.6429 0.118827 0)
(10.6314 0.119463 0)
(10.6194 0.120212 0)
(10.607 0.121083 0)
(10.5942 0.122079 0)
(10.5809 0.123209 0)
(10.5671 0.124479 0)
(10.5529 0.125896 0)
(10.5381 0.127468 0)
(10.5228 0.129203 0)
(10.507 0.13111 0)
(10.4905 0.133198 0)
(10.4735 0.135476 0)
(10.4558 0.137954 0)
(10.4375 0.140643 0)
(10.4184 0.143554 0)
(10.3986 0.146698 0)
(10.3781 0.150089 0)
(10.3567 0.153739 0)
(10.3345 0.157662 0)
(10.3113 0.161871 0)
(10.2872 0.166382 0)
(10.2621 0.171211 0)
(10.2359 0.176373 0)
(10.2085 0.181887 0)
(10.18 0.187768 0)
(10.1501 0.194036 0)
(10.1189 0.200709 0)
(10.0862 0.207807 0)
(10.052 0.215349 0)
(10.0161 0.223356 0)
(9.97846 0.23185 0)
(9.93894 0.24085 0)
(9.89742 0.250379 0)
(9.85377 0.260456 0)
(9.80784 0.271103 0)
(9.75948 0.28234 0)
(9.70851 0.294185 0)
(9.65476 0.306658 0)
(9.59805 0.319775 0)
(9.53814 0.333549 0)
(9.47484 0.347993 0)
(9.40788 0.363115 0)
(9.33702 0.378918 0)
(9.26198 0.395402 0)
(9.18245 0.412561 0)
(9.09812 0.430382 0)
(9.00863 0.448841 0)
(8.91362 0.467909 0)
(8.8127 0.487543 0)
(8.70544 0.507688 0)
(8.59138 0.528273 0)
(8.47006 0.549214 0)
(8.34096 0.570403 0)
(8.20354 0.591716 0)
(8.05723 0.613003 0)
(7.90146 0.634086 0)
(7.73559 0.65476 0)
(7.55899 0.674783 0)
(7.37101 0.693878 0)
(7.17099 0.711731 0)
(6.95829 0.727996 0)
(6.73228 0.742285 0)
(6.49239 0.75418 0)
(6.2381 0.763225 0)
(5.96901 0.768933 0)
(5.68488 0.770788 0)
(5.38564 0.768241 0)
(5.0715 0.760731 0)
(4.74298 0.747711 0)
(4.40102 0.728661 0)
(4.04706 0.703131 0)
(3.68319 0.670788 0)
(3.31222 0.631537 0)
(2.93788 0.585612 0)
(2.56507 0.533718 0)
(2.19986 0.47717 0)
(1.84954 0.417966 0)
(1.5218 0.35883 0)
(1.22377 0.302824 0)
(0.960544 0.252367 0)
(0.734261 0.208942 0)
(0.542075 0.172427 0)
(0.37822 0.140819 0)
(10.0001 0.0253329 0)
(10.0092 0.0742934 0)
(10.0261 0.11944 0)
(10.0502 0.158589 0)
(10.0797 0.190696 0)
(10.1121 0.216193 0)
(10.1451 0.236532 0)
(10.1773 0.253356 0)
(10.2083 0.267847 0)
(10.2386 0.280504 0)
(10.2688 0.291334 0)
(10.2993 0.300189 0)
(10.3301 0.306985 0)
(10.3611 0.311759 0)
(10.3921 0.314641 0)
(10.4226 0.315784 0)
(10.4527 0.315323 0)
(10.482 0.313366 0)
(10.5106 0.310007 0)
(10.5382 0.305343 0)
(10.5649 0.299488 0)
(10.5905 0.292574 0)
(10.6148 0.284754 0)
(10.6378 0.276194 0)
(10.6594 0.267071 0)
(10.6795 0.257563 0)
(10.6982 0.247848 0)
(10.7155 0.23809 0)
(10.7314 0.228443 0)
(10.746 0.219038 0)
(10.7594 0.209988 0)
(10.7716 0.20138 0)
(10.7829 0.193282 0)
(10.7933 0.185738 0)
(10.8029 0.17877 0)
(10.8119 0.172384 0)
(10.8202 0.16657 0)
(10.8281 0.161304 0)
(10.8356 0.156554 0)
(10.8426 0.152285 0)
(10.8494 0.148459 0)
(10.8559 0.145041 0)
(10.8621 0.141995 0)
(10.8682 0.139285 0)
(10.874 0.136878 0)
(10.8796 0.134741 0)
(10.8851 0.132841 0)
(10.8904 0.131151 0)
(10.8955 0.129645 0)
(10.9005 0.128299 0)
(10.9053 0.127095 0)
(10.9099 0.126014 0)
(10.9143 0.125043 0)
(10.9185 0.12417 0)
(10.9226 0.123384 0)
(10.9264 0.122678 0)
(10.9301 0.122045 0)
(10.9335 0.121482 0)
(10.9367 0.120983 0)
(10.9397 0.120548 0)
(10.9425 0.120174 0)
(10.945 0.119862 0)
(10.9473 0.119611 0)
(10.9494 0.119424 0)
(10.9512 0.119301 0)
(10.9527 0.119244 0)
(10.954 0.119256 0)
(10.955 0.11934 0)
(10.9558 0.1195 0)
(10.9562 0.119738 0)
(10.9564 0.120059 0)
(10.9564 0.120467 0)
(10.956 0.120967 0)
(10.9553 0.121563 0)
(10.9543 0.12226 0)
(10.9531 0.123064 0)
(10.9514 0.123981 0)
(10.9495 0.125016 0)
(10.9473 0.126176 0)
(10.9446 0.127467 0)
(10.9417 0.128898 0)
(10.9383 0.130475 0)
(10.9346 0.132206 0)
(10.9305 0.1341 0)
(10.926 0.136166 0)
(10.9211 0.138413 0)
(10.9157 0.140852 0)
(10.9099 0.143493 0)
(10.9036 0.146347 0)
(10.8969 0.149426 0)
(10.8896 0.152742 0)
(10.8817 0.156309 0)
(10.8733 0.16014 0)
(10.8643 0.164251 0)
(10.8547 0.168657 0)
(10.8445 0.173374 0)
(10.8336 0.178419 0)
(10.8219 0.183811 0)
(10.8095 0.189568 0)
(10.7963 0.195711 0)
(10.7822 0.202259 0)
(10.7673 0.209236 0)
(10.7514 0.216664 0)
(10.7345 0.224566 0)
(10.7165 0.232968 0)
(10.6974 0.241895 0)
(10.6771 0.251374 0)
(10.6556 0.261432 0)
(10.6326 0.272098 0)
(10.6083 0.2834 0)
(10.5823 0.295369 0)
(10.5548 0.308034 0)
(10.5254 0.321425 0)
(10.4942 0.335573 0)
(10.461 0.350508 0)
(10.4256 0.366259 0)
(10.3878 0.382855 0)
(10.3476 0.400321 0)
(10.3047 0.418682 0)
(10.2589 0.437962 0)
(10.21 0.458177 0)
(10.1577 0.479343 0)
(10.1018 0.501468 0)
(10.042 0.524555 0)
(9.97804 0.548598 0)
(9.90946 0.573584 0)
(9.83595 0.599485 0)
(9.75709 0.626265 0)
(9.67243 0.653868 0)
(9.5815 0.682226 0)
(9.48375 0.711246 0)
(9.37862 0.740815 0)
(9.26548 0.770794 0)
(9.14366 0.801016 0)
(9.01243 0.831284 0)
(8.87102 0.861367 0)
(8.71858 0.890998 0)
(8.55424 0.91987 0)
(8.37707 0.947633 0)
(8.1861 0.973894 0)
(7.98034 0.998209 0)
(7.75877 1.02009 0)
(7.52039 1.03898 0)
(7.26421 1.05426 0)
(6.9893 1.06524 0)
(6.69485 1.0712 0)
(6.38022 1.07133 0)
(6.04498 1.06483 0)
(5.68908 1.05087 0)
(5.31287 1.02866 0)
(4.91727 0.99745 0)
(4.50401 0.956628 0)
(4.07574 0.905738 0)
(3.63629 0.844603 0)
(3.1908 0.773552 0)
(2.74616 0.693714 0)
(2.31123 0.607314 0)
(1.89713 0.517863 0)
(1.51598 0.430193 0)
(1.17821 0.349718 0)
(10.0001 0.0208372 0)
(10.007 0.0615063 0)
(10.02 0.0997294 0)
(10.0387 0.134104 0)
(10.0623 0.163618 0)
(10.0892 0.188087 0)
(10.1177 0.208101 0)
(10.1466 0.224643 0)
(10.1751 0.238662 0)
(10.2033 0.250752 0)
(10.2314 0.261112 0)
(10.2596 0.269717 0)
(10.2882 0.276494 0)
(10.317 0.281435 0)
(10.3459 0.284616 0)
(10.3745 0.286165 0)
(10.4028 0.286217 0)
(10.4305 0.284893 0)
(10.4575 0.282297 0)
(10.4839 0.278527 0)
(10.5093 0.273687 0)
(10.5339 0.267894 0)
(10.5574 0.261278 0)
(10.5798 0.253982 0)
(10.6011 0.246158 0)
(10.6211 0.23796 0)
(10.64 0.229538 0)
(10.6576 0.221036 0)
(10.6741 0.212587 0)
(10.6895 0.204307 0)
(10.7038 0.196296 0)
(10.7172 0.188635 0)
(10.7298 0.181387 0)
(10.7415 0.174594 0)
(10.7526 0.168284 0)
(10.7631 0.162466 0)
(10.7731 0.157137 0)
(10.7827 0.152285 0)
(10.7918 0.147887 0)
(10.8007 0.14392 0)
(10.8093 0.140355 0)
(10.8177 0.137162 0)
(10.8259 0.134313 0)
(10.8339 0.131779 0)
(10.8417 0.129528 0)
(10.8495 0.127534 0)
(10.8571 0.125768 0)
(10.8646 0.124206 0)
(10.872 0.122823 0)
(10.8793 0.121601 0)
(10.8865 0.12052 0)
(10.8935 0.119566 0)
(10.9005 0.118725 0)
(10.9074 0.117985 0)
(10.9141 0.117339 0)
(10.9208 0.116777 0)
(10.9273 0.116295 0)
(10.9336 0.115888 0)
(10.9399 0.115551 0)
(10.946 0.115284 0)
(10.9519 0.115085 0)
(10.9578 0.114953 0)
(10.9634 0.114888 0)
(10.9689 0.114892 0)
(10.9743 0.114967 0)
(10.9794 0.115114 0)
(10.9844 0.115335 0)
(10.9892 0.115634 0)
(10.9939 0.116015 0)
(10.9984 0.11648 0)
(11.0026 0.117034 0)
(11.0067 0.117682 0)
(11.0106 0.118427 0)
(11.0143 0.119275 0)
(11.0177 0.120232 0)
(11.021 0.121303 0)
(11.024 0.122493 0)
(11.0268 0.123811 0)
(11.0294 0.125262 0)
(11.0317 0.126853 0)
(11.0338 0.128594 0)
(11.0356 0.130491 0)
(11.0372 0.132554 0)
(11.0385 0.134791 0)
(11.0395 0.137213 0)
(11.0402 0.139829 0)
(11.0406 0.142651 0)
(11.0407 0.145691 0)
(11.0405 0.14896 0)
(11.0399 0.152472 0)
(11.0389 0.156239 0)
(11.0376 0.160278 0)
(11.0359 0.164603 0)
(11.0338 0.16923 0)
(11.0312 0.174177 0)
(11.0282 0.179462 0)
(11.0248 0.185103 0)
(11.0208 0.191122 0)
(11.0164 0.197538 0)
(11.0113 0.204376 0)
(11.0058 0.211657 0)
(10.9996 0.219408 0)
(10.9927 0.227653 0)
(10.9852 0.23642 0)
(10.977 0.245738 0)
(10.968 0.255636 0)
(10.9583 0.266145 0)
(10.9477 0.277298 0)
(10.9362 0.289128 0)
(10.9237 0.301669 0)
(10.9102 0.314958 0)
(10.8956 0.329032 0)
(10.8799 0.343929 0)
(10.8629 0.359686 0)
(10.8446 0.376344 0)
(10.8249 0.39394 0)
(10.8036 0.412516 0)
(10.7807 0.43211 0)
(10.7561 0.45276 0)
(10.7295 0.474503 0)
(10.7008 0.497374 0)
(10.67 0.521407 0)
(10.6367 0.546631 0)
(10.6008 0.57307 0)
(10.562 0.600744 0)
(10.5202 0.629666 0)
(10.4749 0.659841 0)
(10.4259 0.691263 0)
(10.3729 0.723916 0)
(10.3155 0.757767 0)
(10.2531 0.79277 0)
(10.1855 0.828859 0)
(10.1119 0.865946 0)
(10.0319 0.90392 0)
(9.94474 0.942643 0)
(9.84977 0.981948 0)
(9.74616 1.02163 0)
(9.63306 1.06145 0)
(9.50952 1.10112 0)
(9.37451 1.14031 0)
(9.22692 1.17864 0)
(9.06554 1.21565 0)
(8.8891 1.25084 0)
(8.69624 1.28364 0)
(8.48555 1.31341 0)
(8.25557 1.33942 0)
(8.00485 1.36088 0)
(7.73191 1.3769 0)
(7.43541 1.38657 0)
(7.11404 1.38885 0)
(6.7668 1.38264 0)
(6.39296 1.36679 0)
(5.9923 1.34013 0)
(5.56525 1.30153 0)
(5.11302 1.24994 0)
(4.63802 1.1846 0)
(4.14413 1.10515 0)
(3.63708 1.01171 0)
(3.12474 0.905303 0)
(2.61769 0.788428 0)
(10.0001 0.0174422 0)
(10.0056 0.0516771 0)
(10.016 0.0842464 0)
(10.0311 0.11422 0)
(10.0503 0.140791 0)
(10.0729 0.163586 0)
(10.0976 0.182741 0)
(10.1233 0.198761 0)
(10.1494 0.212284 0)
(10.1755 0.223832 0)
(10.2017 0.23369 0)
(10.2281 0.241935 0)
(10.2547 0.248551 0)
(10.2816 0.253525 0)
(10.3085 0.256899 0)
(10.3354 0.258766 0)
(10.3621 0.259244 0)
(10.3883 0.258449 0)
(10.4139 0.256491 0)
(10.4389 0.253466 0)
(10.4632 0.249474 0)
(10.4867 0.244619 0)
(10.5093 0.239016 0)
(10.5309 0.232788 0)
(10.5516 0.226065 0)
(10.5712 0.218981 0)
(10.5897 0.211665 0)
(10.6072 0.204243 0)
(10.6236 0.196829 0)
(10.6391 0.189526 0)
(10.6537 0.182423 0)
(10.6673 0.175594 0)
(10.6803 0.169097 0)
(10.6924 0.162973 0)
(10.704 0.15725 0)
(10.715 0.151943 0)
(10.7255 0.147055 0)
(10.7356 0.14258 0)
(10.7454 0.138506 0)
(10.7548 0.134814 0)
(10.764 0.131485 0)
(10.7729 0.128495 0)
(10.7816 0.125819 0)
(10.7902 0.123432 0)
(10.7986 0.121311 0)
(10.807 0.119429 0)
(10.8152 0.117765 0)
(10.8232 0.116295 0)
(10.8312 0.115 0)
(10.8392 0.113862 0)
(10.847 0.112865 0)
(10.8547 0.111994 0)
(10.8624 0.111238 0)
(10.87 0.110586 0)
(10.8775 0.11003 0)
(10.8849 0.109563 0)
(10.8922 0.109179 0)
(10.8994 0.108874 0)
(10.9065 0.108644 0)
(10.9135 0.108488 0)
(10.9205 0.108404 0)
(10.9273 0.108391 0)
(10.934 0.108451 0)
(10.9406 0.108583 0)
(10.947 0.10879 0)
(10.9534 0.109073 0)
(10.9596 0.109435 0)
(10.9657 0.109879 0)
(10.9717 0.110409 0)
(10.9776 0.111027 0)
(10.9833 0.111739 0)
(10.9889 0.112549 0)
(10.9943 0.113461 0)
(10.9996 0.11448 0)
(11.0047 0.115613 0)
(11.0097 0.116866 0)
(11.0145 0.118244 0)
(11.0192 0.119754 0)
(11.0237 0.121404 0)
(11.028 0.123201 0)
(11.0322 0.125154 0)
(11.0361 0.127271 0)
(11.0399 0.129561 0)
(11.0435 0.132034 0)
(11.0468 0.1347 0)
(11.05 0.13757 0)
(11.053 0.140656 0)
(11.0557 0.143969 0)
(11.0582 0.147523 0)
(11.0604 0.151331 0)
(11.0624 0.155408 0)
(11.0641 0.15977 0)
(11.0656 0.164431 0)
(11.0668 0.169411 0)
(11.0676 0.174726 0)
(11.0682 0.180396 0)
(11.0685 0.186442 0)
(11.0684 0.192884 0)
(11.0679 0.199745 0)
(11.0671 0.20705 0)
(11.0659 0.214822 0)
(11.0643 0.22309 0)
(11.0623 0.23188 0)
(11.0598 0.241221 0)
(11.0568 0.251145 0)
(11.0534 0.261684 0)
(11.0494 0.27287 0)
(11.0449 0.28474 0)
(11.0398 0.29733 0)
(11.0341 0.310679 0)
(11.0278 0.324826 0)
(11.0207 0.339813 0)
(11.013 0.355681 0)
(11.0044 0.372476 0)
(10.995 0.390242 0)
(10.9848 0.409025 0)
(10.9736 0.428873 0)
(10.9613 0.449833 0)
(10.948 0.471952 0)
(10.9336 0.49528 0)
(10.9178 0.519862 0)
(10.9007 0.545746 0)
(10.8821 0.572976 0)
(10.8619 0.601595 0)
(10.8399 0.631642 0)
(10.8161 0.663153 0)
(10.7901 0.696156 0)
(10.7618 0.730675 0)
(10.7309 0.766726 0)
(10.6973 0.804312 0)
(10.6605 0.843428 0)
(10.6202 0.884053 0)
(10.5761 0.926152 0)
(10.5277 0.969668 0)
(10.4745 1.01453 0)
(10.416 1.06063 0)
(10.3515 1.10785 0)
(10.2803 1.15601 0)
(10.2016 1.20493 0)
(10.1146 1.25435 0)
(10.0182 1.30399 0)
(9.91126 1.35349 0)
(9.79266 1.40244 0)
(9.66102 1.45038 0)
(9.51489 1.49675 0)
(9.35266 1.54091 0)
(9.17264 1.58215 0)
(8.97302 1.61963 0)
(8.75188 1.65245 0)
(8.50725 1.67958 0)
(8.23713 1.69988 0)
(7.93954 1.71211 0)
(7.61263 1.71494 0)
(7.25473 1.70692 0)
(6.8645 1.68653 0)
(6.44112 1.65221 0)
(5.98453 1.60243 0)
(5.49573 1.53577 0)
(4.97694 1.45106 0)
(4.43237 1.34777 0)
(10 0.0147648 0)
(10.0046 0.0438387 0)
(10.0132 0.071749 0)
(10.0257 0.0978089 0)
(10.0419 0.121428 0)
(10.0611 0.142215 0)
(10.0826 0.160097 0)
(10.1056 0.175288 0)
(10.1293 0.188166 0)
(10.1535 0.199121 0)
(10.1779 0.208431 0)
(10.2025 0.216235 0)
(10.2274 0.22257 0)
(10.2526 0.227444 0)
(10.278 0.230886 0)
(10.3033 0.23296 0)
(10.3285 0.233761 0)
(10.3533 0.233392 0)
(10.3778 0.231958 0)
(10.4016 0.229554 0)
(10.4249 0.226275 0)
(10.4474 0.222217 0)
(10.4692 0.21748 0)
(10.4901 0.212173 0)
(10.5102 0.206407 0)
(10.5293 0.200298 0)
(10.5475 0.193957 0)
(10.5648 0.187493 0)
(10.5812 0.181006 0)
(10.5966 0.174587 0)
(10.6112 0.168313 0)
(10.6251 0.162251 0)
(10.6382 0.156454 0)
(10.6506 0.150963 0)
(10.6624 0.145805 0)
(10.6737 0.140997 0)
(10.6846 0.136548 0)
(10.695 0.132457 0)
(10.705 0.128716 0)
(10.7147 0.125314 0)
(10.7241 0.122236 0)
(10.7333 0.119463 0)
(10.7423 0.116975 0)
(10.7511 0.114751 0)
(10.7598 0.112771 0)
(10.7683 0.111015 0)
(10.7767 0.109461 0)
(10.7849 0.108093 0)
(10.7931 0.106891 0)
(10.8012 0.105841 0)
(10.8092 0.104927 0)
(10.8171 0.104139 0)
(10.8249 0.103464 0)
(10.8327 0.102894 0)
(10.8403 0.10242 0)
(10.8479 0.102037 0)
(10.8554 0.101738 0)
(10.8628 0.101521 0)
(10.8701 0.101381 0)
(10.8774 0.101317 0)
(10.8845 0.101328 0)
(10.8916 0.101412 0)
(10.8985 0.101572 0)
(10.9054 0.101806 0)
(10.9122 0.102118 0)
(10.9188 0.102509 0)
(10.9254 0.102981 0)
(10.9319 0.103538 0)
(10.9382 0.104183 0)
(10.9445 0.10492 0)
(10.9506 0.105753 0)
(10.9566 0.106687 0)
(10.9626 0.107726 0)
(10.9683 0.108876 0)
(10.974 0.110143 0)
(10.9796 0.111532 0)
(10.985 0.113051 0)
(10.9903 0.114707 0)
(10.9954 0.116506 0)
(11.0004 0.118457 0)
(11.0053 0.120569 0)
(11.01 0.122849 0)
(11.0146 0.125308 0)
(11.019 0.127955 0)
(11.0233 0.130802 0)
(11.0274 0.133858 0)
(11.0313 0.137137 0)
(11.035 0.140651 0)
(11.0386 0.144412 0)
(11.042 0.148436 0)