/*--------------------------------*- C++ -*----------------------------------*\
| =========                 |                                                 |
| \\      /  F ield         | OpenFOAM: The Open Source CFD Toolbox           |
|  \\    /   O peration     | Version:  2306                                  |
|   \\  /    A nd           | Website:  www.openfoam.com                      |
|    \\/     M anipulation  |                                                 |
\*---------------------------------------------------------------------------*/
FoamFile
{
    version     2.0;
    format      ascii;
    arch        "LSB;label=32;scalar=64";
    class       volScalarField;
    location    "0.4";
    object      p;
}
// * * * * * * * * * * * * * * * * * * * * * * * * * * * * * * * * * * * * * //

dimensions      [0 2 -2 0 0 0 0];

internalField   nonuniform List<scalar> 
4400
(
441.41
440.395
439.487
438.815
438.366
438.059
437.815
437.586
437.352
437.112
436.866
436.618
436.371
436.126
435.881
435.638
435.395
435.151
434.907
434.663
434.419
434.174
433.93
433.687
433.445
433.204
432.966
432.729
432.496
432.266
432.041
431.82
431.605
431.395
431.192
430.996
430.808
430.629
430.459
430.3
430.151
430.013
429.887
429.774
429.673
429.585
429.511
429.45
429.403
429.368
429.345
429.333
429.33
429.334
429.342
429.349
429.351
429.342
429.316
429.266
429.185
429.068
428.916
428.742
428.591
428.516
428.585
428.875
429.417
430.178
431.068
431.8
432.109
431.94
431.872
431.815
432.248
432.442
432.196
432.027
439.948
439.605
439.173
438.732
438.341
438.016
437.747
437.512
437.289
437.064
436.833
436.596
436.355
436.112
435.869
435.626
435.383
435.141
434.898
434.656
434.412
434.169
433.926
433.684
433.442
433.202
432.964
432.728
432.496
432.266
432.041
431.819
431.604
431.394
431.19
430.994
430.805
430.625
430.453
430.292
430.14
430
429.871
429.754
429.65
429.558
429.481
429.415
429.364
429.323
429.296
429.279
429.272
429.271
429.274
429.277
429.276
429.265
429.237
429.187
429.106
428.992
428.845
428.677
428.527
428.459
428.549
428.891
429.53
430.469
431.589
432.539
432.607
431.827
431.384
431.201
431.438
432.094
432.344
432.261
439.402
439.236
438.979
438.661
438.327
438.013
437.731
437.482
437.253
437.031
436.808
436.579
436.344
436.104
435.862
435.62
435.377
435.135
434.893
434.651
434.408
434.166
433.923
433.682
433.441
433.201
432.964
432.728
432.495
432.265
432.039
431.817
431.6
431.388
431.183
430.984
430.792
430.608
430.432
430.265
430.108
429.96
429.823
429.696
429.58
429.477
429.383
429.303
429.233
429.174
429.125
429.085
429.053
429.026
429.003
428.979
428.951
428.916
428.868
428.803
428.72
428.619
428.507
428.401
428.338
428.377
428.571
428.954
429.532
430.283
431.073
431.663
431.865
431.72
431.797
432.071
432.622
433.445
432.806
431.868
438.987
438.887
438.713
438.48
438.214
437.942
437.68
437.434
437.204
436.983
436.764
436.542
436.314
436.081
435.844
435.604
435.363
435.122
434.881
434.64
434.399
434.157
433.916
433.675
433.434
433.196
432.957
432.722
432.488
432.258
432.031
431.808
431.589
431.375
431.167
430.963
430.767
430.577
430.396
430.221
430.055
429.898
429.749
429.61
429.48
429.36
429.249
429.149
429.057
428.974
428.899
428.831
428.768
428.709
428.652
428.593
428.531
428.462
428.387
428.299
428.206
428.106
428.016
427.947
427.933
428.002
428.185
428.485
428.913
429.428
429.986
430.483
430.861
431.13
431.326
431.524
431.709
431.934
432.128
432.651
438.687
438.618
438.494
438.319
438.107
437.875
437.636
437.402
437.175
436.954
436.736
436.516
436.292
436.063
435.83
435.593
435.354
435.114
434.874
434.633
434.392
434.151
433.91
433.669
433.428
433.19
432.951
432.715
432.48
432.249
432.02
431.795
431.573
431.356
431.144
430.936
430.735
430.539
430.351
430.168
429.994
429.825
429.666
429.512
429.368
429.231
429.102
428.981
428.866
428.759
428.656
428.559
428.464
428.371
428.279
428.183
428.085
427.981
427.872
427.758
427.641
427.528
427.43
427.355
427.328
427.358
427.463
427.652
427.922
428.264
428.662
429.052
429.442
429.735
429.987
430.188
430.45
430.868
431.383
431.774
438.469
438.417
438.32
438.181
438.007
437.806
437.59
437.37
437.148
436.929
436.711
436.492
436.27
436.044
435.814
435.58
435.344
435.105
434.865
434.625
434.384
434.142
433.902
433.66
433.42
433.18
432.94
432.703
432.468
432.235
432.003
431.776
431.551
431.331
431.114
430.902
430.695
430.493
430.298
430.106
429.923
429.743
429.572
429.405
429.247
429.093
428.946
428.804
428.666
428.536
428.405
428.28
428.152
428.03
427.898
427.772
427.633
427.497
427.351
427.204
427.056
426.914
426.783
426.671
426.596
426.549
426.573
426.628
426.775
426.946
427.193
427.44
427.707
427.938
428.164
428.384
428.685
429.048
429.419
429.654
438.31
438.267
438.187
438.07
437.919
437.742
437.546
437.338
437.123
436.907
436.69
436.472
436.251
436.027
435.799
435.567
435.333
435.095
434.856
434.616
434.375
434.133
433.892
433.65
433.409
433.168
432.928
432.689
432.452
432.216
431.983
431.752
431.524
431.301
431.079
430.863
430.649
430.441
430.237
430.039
429.844
429.656
429.471
429.292
429.119
428.948
428.784
428.621
428.463
428.307
428.152
427.998
427.842
427.686
427.522
427.361
427.186
427.014
426.83
426.648
426.459
426.275
426.1
425.928
425.79
425.659
425.579
425.524
425.522
425.549
425.627
425.715
425.831
425.95
426.074
426.238
426.423
426.657
426.893
427.112
438.197
438.161
438.09
437.986
437.851
437.69
437.508
437.31
437.103
436.89
436.674
436.456
436.236
436.012
435.786
435.556
435.323
435.086
434.848
434.607
434.366
434.124
433.882
433.639
433.397
433.154
432.913
432.673
432.434
432.195
431.96
431.726
431.494
431.266
431.039
430.819
430.598
430.384
430.172
429.965
429.76
429.563
429.365
429.174
428.985
428.799
428.617
428.435
428.256
428.077
427.898
427.714
427.534
427.342
427.153
426.95
426.748
426.532
426.316
426.086
425.856
425.623
425.385
425.158
424.93
424.722
424.528
424.357
424.208
424.09
423.989
423.918
423.86
423.826
423.808
423.832
423.859
423.974
424.089
424.292
438.125
438.092
438.027
437.93
437.805
437.653
437.48
437.289
437.087
436.877
436.663
436.445
436.225
436.002
435.776
435.546
435.314
435.078
434.839
434.599
434.356
434.114
433.87
433.627
433.383
433.14
432.896
432.655
432.412
432.172
431.932
431.695
431.46
431.228
430.996
430.769
430.543
430.321
430.103
429.886
429.673
429.464
429.255
429.052
428.848
428.646
428.448
428.247
428.048
427.847
427.642
427.436
427.227
427.006
426.786
426.55
426.313
426.058
425.802
425.526
425.249
424.959
424.661
424.359
424.053
423.745
423.442
423.145
422.851
422.579
422.296
422.062
421.79
421.608
421.375
421.234
421.102
421.037
421.081
421.22
438.09
438.058
437.994
437.901
437.781
437.634
437.465
437.277
437.078
436.87
436.656
436.439
436.218
435.995
435.769
435.538
435.307
435.07
434.832
434.59
434.347
434.104
433.858
433.615
433.367
433.124
432.877
432.634
432.388
432.146
431.903
431.662
431.423
431.185
430.95
430.716
430.485
430.255
430.03
429.802
429.583
429.36
429.142
428.925
428.708
428.491
428.277
428.057
427.84
427.619
427.39
427.162
426.922
426.678
426.422
426.159
425.881
425.593
425.294
424.968
424.648
424.288
423.933
423.552
423.157
422.756
422.33
421.911
421.459
421.031
420.561
420.129
419.673
419.239
418.834
418.455
418.131
417.912
417.781
417.867
438.09
438.057
437.992
437.9
437.78
437.633
437.464
437.275
437.076
436.867
436.654
436.436
436.215
435.991
435.764
435.534
435.301
435.064
434.824
434.582
434.337
434.093
433.846
433.601
433.351
433.106
432.857
432.612
432.363
432.117
431.871
431.626
431.384
431.14
430.9
430.66
430.422
430.186
429.953
429.717
429.489
429.255
429.026
428.799
428.566
428.338
428.105
427.869
427.634
427.392
427.141
426.891
426.626
426.353
426.074
425.77
425.465
425.137
424.789
424.429
424.043
423.634
423.205
422.749
422.263
421.76
421.218
420.654
420.067
419.438
418.807
418.137
417.461
416.805
416.112
415.517
414.945
414.481
414.202
414.074
438.125
438.089
438.021
437.927
437.802
437.65
437.476
437.283
437.082
436.87
436.656
436.437
436.215
435.992
435.762
435.532
435.297
435.059
434.818
434.574
434.328
434.082
433.834
433.586
433.335
433.088
432.836
432.588
432.335
432.086
431.837
431.587
431.342
431.092
430.847
430.602
430.356
430.115
429.872
429.63
429.392
429.148
428.909
428.67
428.423
428.183
427.936
427.681
427.434
427.164
426.903
426.623
426.337
426.039
425.728
425.4
425.053
424.695
424.3
423.897
423.458
422.988
422.496
421.956
421.386
420.772
420.116
419.41
418.656
417.867
416.995
416.126
415.189
414.224
413.295
412.352
411.475
410.759
410.135
409.826
438.196
438.155
438.082
437.981
437.846
437.684
437.5
437.301
437.093
436.879
436.662
436.442
436.22
435.995
435.765
435.533
435.295
435.056
434.812
434.567
434.32
434.071
433.821
433.571
433.318
433.068
432.813
432.563
432.307
432.054
431.801
431.546
431.298
431.041
430.792
430.541
430.289
430.042
429.79
429.54
429.295
429.038
428.795
428.537
428.284
428.027
427.767
427.5
427.232
426.95
426.662
426.371
426.051
425.738
425.397
425.034
424.669
424.257
423.835
423.387
422.888
422.369
421.808
421.189
420.528
419.827
419.023
418.196
417.284
416.265
415.229
414.065
412.85
411.602
410.267
408.98
407.738
406.54
405.631
404.897
438.306
438.259
438.179
438.064
437.912
437.734
437.534
437.326
437.111
436.893
436.673
436.453
436.229
436.003
435.77
435.535
435.294
435.053
434.807
434.56
434.311
434.06
433.81
433.554
433.303
433.047
432.791
432.536
432.276
432.022
431.763
431.505
431.251
430.988
430.737
430.475
430.22
429.965
429.706
429.45
429.194
428.93
428.676
428.409
428.142
427.879
427.596
427.325
427.035
426.737
426.438
426.117
425.786
425.445
425.077
424.691
424.293
423.847
423.387
422.902
422.341
421.787
421.146
420.456
419.727
418.895
418
417.024
415.929
414.753
413.439
412.029
410.518
408.828
407.168
405.377
403.564
401.955
400.416
399.207
438.46
438.406
438.313
438.174
437.998
437.794
437.577
437.356
437.133
436.911
436.689
436.468
436.243
436.014
435.778
435.54
435.295
435.052
434.803
434.554
434.303
434.05
433.798
433.539
433.286
433.025
432.768
432.509
432.244
431.989
431.722
431.463
431.203
430.934
430.679
430.41
430.15
429.889
429.618
429.362
429.089
428.827
428.554
428.283
428.006
427.727
427.44
427.145
426.851
426.528
426.22
425.879
425.524
425.175
424.766
424.37
423.939
423.451
422.98
422.429
421.841
421.232
420.531
419.774
418.962
418.048
417.019
415.926
414.674
413.268
411.749
410.062
408.119
406.133
403.875
401.51
399.149
396.684
394.466
392.575
438.675
438.606
438.488
438.311
438.097
437.859
437.62
437.386
437.158
436.933
436.71
436.488
436.259
436.027
435.787
435.545
435.297
435.051
434.799
434.55
434.295
434.041
433.786
433.524
433.27
433.003
432.746
432.48
432.214
431.954
431.681
431.421
431.15
430.883
430.618
430.346
430.079
429.81
429.535
429.268
428.991
428.717
428.44
428.157
427.874
427.581
427.283
426.978
426.667
426.332
426.014
425.644
425.288
424.909
424.477
424.073
423.602
423.082
422.608
421.979
421.379
420.729
419.943
419.159
418.274
417.237
416.153
414.92
413.483
411.948
410.152
408.17
405.924
403.342
400.595
397.536
394.138
390.952
387.606
384.451
438.971
438.875
438.707
438.471
438.202
437.924
437.662
437.415
437.185
436.959
436.736
436.509
436.277
436.039
435.794
435.549
435.297
435.05
434.794
434.546
434.286
434.032
433.772
433.508
433.251
432.98
432.721
432.449
432.182
431.916
431.639
431.376
431.098
430.828
430.556
430.278
430.007
429.728
429.451
429.172
428.892
428.608
428.322
428.034
427.733
427.444
427.121
426.82
426.491
426.144
425.825
425.416
425.074
424.656
424.209
423.807
423.272
422.774
422.237
421.59
420.946
420.268
419.405
418.615
417.62
416.554
415.375
413.981
412.529
410.678
408.727
406.576
403.738
400.876
397.413
393.255
389.057
384.371
379.465
374.866
439.385
439.225
438.971
438.651
438.313
437.993
437.713
437.461
437.233
437.003
436.778
436.541
436.304
436.057
435.809
435.558
435.305
435.054
434.796
434.546
434.282
434.027
433.762
433.497
433.235
432.961
432.699
432.421
432.152
431.879
431.603
431.329
431.052
430.772
430.496
430.214
429.933
429.653
429.367
429.08
428.801
428.498
428.217
427.914
427.606
427.317
426.979
426.68
426.328
425.979
425.652
425.215
424.89
424.427
423.982
423.576
422.98
422.513
421.931
421.227
420.632
419.797
419.02
418.078
417.083
416.029
414.62
413.293
411.66
409.575
407.675
404.988
402.036
398.731
394.42
389.42
383.701
376.949
369.876
362.693
439.93
439.593
439.164
438.721
438.326
437.996
437.727
437.49
437.266
437.035
436.801
436.557
436.312
436.061
435.812
435.559
435.307
435.053
434.795
434.542
434.276
434.018
433.751
433.483
433.218
432.941
432.674
432.395
432.121
431.845
431.564
431.285
431.005
430.719
430.439
430.153
429.863
429.582
429.288
428.994
428.714
428.395
428.122
427.799
427.493
427.2
426.832
426.562
426.17
425.847
425.496
425.051
424.74
424.242
423.815
423.383
422.774
422.301
421.701
420.976
420.367
419.499
418.721
417.692
416.646
415.681
413.882
412.985
410.804
408.797
406.925
403.906
400.427
397.301
391.784
386.476
378.505
369.61
357.03
345.322
441.392
440.382
439.478
438.805
438.35
438.039
437.793
437.563
437.328
437.083
436.832
436.579
436.326
436.074
435.821
435.569
435.314
435.06
434.8
434.543
434.278
434.015
433.749
433.478
433.21
432.933
432.661
432.385
432.103
431.829
431.542
431.264
430.978
430.693
430.409
430.121
429.83
429.546
429.247
428.961
428.665
428.362
428.073
427.754
427.456
427.14
426.803
426.504
426.125
425.799
425.43
425.005
424.671
424.166
423.772
423.273
422.737
422.208
421.6
420.925
420.235
419.43
418.628
417.439
416.758
415.117
414.01
412.738
410.622
408.701
406.715
403.096
400.623
396.081
391.359
384.782
376.778
364.284
348.145
322.739
431.975
431.691
431.466
431.276
431.169
431.207
431.364
431.621
432.019
432.365
432.706
433.329
433.894
433.927
433.848
434.333
435.242
436.341
437.277
437.224
432.239
431.83
431.386
431.078
430.845
430.931
431.134
431.44
431.853
432.317
432.746
433.138
433.265
433.069
433.046
433.585
434.5
435.629
436.684
436.98
431.645
431.576
431.344
431.015
430.762
430.73
430.876
431.309
431.907
432.462
432.895
433.021
432.67
432.009
431.9
432.473
433.399
434.434
435.681
436.449
433.285
433.226
431.242
430.032
429.214
429.512
430.435
431.121
432.091
432.977
433.383
433.111
432.235
431.264
431.075
431.665
432.461
433.212
434.483
435.72
431.653
431.081
430.022
429.498
429.032
428.959
428.74
430.24
432.355
433.537
433.858
433.492
432.414
431.279
430.797
430.884
431.345
432.134
433.524
435.01
429.666
429.486
429.137
428.618
428.101
427.479
428.97
431.34
432.493
434.205
434.528
434.052
432.912
431.913
431.003
430.549
432.012
432.768
432.873
434.469
427.277
427.389
427.452
427.378
427.57
428
429.474
430.983
433.116
434.656
434.816
434.816
434.076
432.532
430.665
430.476
430.741
430.507
431.193
434.869
424.568
424.838
425.266
425.721
426.47
427.608
429.14
431.004
433.016
434.298
434.949
434.923
434.201
433.547
433.397
433.919
434.661
435.095
434.574
439.207
421.506
421.977
422.579
423.44
424.63
426.104
428.028
430.27
432.547
434.495
436.537
437.092
435.784
434.008
431.692
430.664
432.165
433.185
435.36
442.087
418.111
418.604
419.405
420.464
421.893
423.802
426.086
428.766
431.711
433.989
434.804
435.455
435.94
433.637
433.791
437.642
441.243
440.355
439.745
453.157
414.25
414.727
415.516
416.792
418.453
420.587
423.324
426.506
429.953
434.355
439.156
441.638
436.357
432.78
435.498
438.293
440.79
440.187
437.112
443.937
409.79
410.139
410.991
412.272
414.195
416.705
419.723
423.324
426.778
429.254
430.83
431.154
431.495
434.493
437.216
438.844
439.908
441.133
442.85
443.906
404.595
404.783
405.539
406.941
409.022
411.786
415.261
419.256
423.739
428.082
431.38
433.279
434.927
438.136
441.117
442.132
442.135
441.655
439.743
440.4
398.519
398.32
398.966
400.49
402.838
406.02
409.604
413.341
417.302
421.601
426.516
431.471
436.119
440.115
442.15
442.344
441.171
439.168
437.589
438.015
391.11
390.64
390.896
392.322
395.22
399.257
404.37
409.625
414.009
417.187
420.71
426.015
432.032
436.221
438.327
439.148
438.465
436.391
434.909
435.266
382.236
380.877
381.104
382.77
385.645
389.772
394.608
399.959
405.947
412.152
417.966
423.261
428.21
432.345
435.166
435.977
434.794
432.411
430.83
431.333
370.758
368.061
367.933
370.834
376.433
382.465
387.904
391.968
396.096
402.603
410.183
416.768
422.304
427.034
430.434
431.02
429
426.088
424.667
425.708
356.386
351.854
350.519
353.643
360.138
368.135
377.059
384.852
391.656
397.765
403.77
409.709
414.99
419.713
423.272
423.975
421.892
419.804
419.606
422.085
333.94
328.449
331.679
339.366
347.266
354.12
361.237
370.422
380.401
389.24
396.308
402.383
407.626
412.111
415.733
417.75
418.182
418.39
419.608
420.862
293.131
285.51
297.632
315.392
331.716
344.202
353.213
360.542
369.147
378.719
387.094
393.985
399.678
404.739
409.299
412.892
415.176
416.416
417.36
418.938
246.04
252.046
265.584
283.189
302.604
322.678
339.05
350.267
359.589
368.624
377.289
384.986
391.583
397.568
403.115
407.946
411.32
413.542
416.05
419.278
253.393
250.165
258.111
265.404
281.863
301.537
320.239
336.317
348.73
358.965
368.144
376.347
383.805
390.682
397.042
402.761
407.565
411.817
415.965
418.772
254.637
258.061
256.518
261.571
275.271
289.418
304.05
320.421
335.701
348.442
358.617
367.41
375.691
383.384
390.251
396.799
403.207
408.971
413.703
416.511
261.068
260.482
259.91
266.992
276.839
286.098
292.349
306.154
322.548
336.606
347.987
357.886
367.231
375.82
383.517
390.817
397.972
404.342
409.33
412.145
259.814
260.39
262.362
270.085
278.755
283.628
286.317
295.211
310.256
324.917
337.356
348.239
358.452
367.732
375.924
383.572
391.078
397.714
402.828
405.805
259.448
258.841
262.642
267.126
283.085
280.192
283.76
286.271
297.792
311.546
324.622
337.078
348.659
358.7
367.427
375.436
383.173
389.952
395.139
398.062
256.595
256.973
260.074
266.164
283.633
275.526
276.678
280.587
284.416
295.536
310.593
325.465
338.677
349.519
358.712
367.065
374.867
381.634
386.764
389.279
254.65
254.698
257.255
262.158
270.73
269.014
265.734
269.837
270.237
279.379
296.194
313.507
328.79
340.512
350.139
358.832
366.627
373.061
377.727
380.027
252.078
251.26
250.94
251.092
251.851
251.174
246.146
247.993
251.648
260.422
279.504
300.385
317.768
330.847
341.556
350.643
358.221
364.158
368.576
371.031
248.323
245.994
240.931
233.257
225.046
217.233
213.038
216.746
224.293
237.352
262.59
287.057
306.147
320.676
332.598
342.244
349.848
355.887
360.422
362.521
242.729
238.016
225.848
207.3
188.832
174.214
171.193
179.19
191.669
213.556
246.502
275.057
296.277
311.905
324.551
334.651
342.48
348.489
352.707
354.517
236.395
228.79
209.147
179.637
150.97
131.13
130.062
142.801
161.326
193.058
232.294
264.82
287.855
305.116
318.344
328.468
336.127
341.886
346.008
347.888
232.541
222.761
197.039
159.424
123.595
100.025
100.803
115.842
140.471
178.638
222.635
256.789
282.376
300.715
313.943
323.961
331.3
336.731
340.863
342.444
234.865
223.914
195.144
154.64
116.432
89.9307
91.6436
106.814
135.059
177.23
220.829
255.76
280.907
298.72
311.761
321.454
328.52
333.384
336.995
338.47
245.867
235.359
206.496
166.592
129.237
107.938
107.47
122.527
151.058
192.31
231.96
262.799
284.44
300.635
311.995
320.608
326.978
331.332
334.521
335.942
265.34
255.016
229.148
193.656
163.147
146.449
145.806
159.545
186.307
220.703
253.022
275.087
293.165
305.721
314.577
321.779
326.903
330.613
333.211
334.343
289.199
279.749
258.325
231.181
208.799
196.67
196.44
207.644
230.517
255.142
276.293
291.909
305.114
312.918
319.615
324.838
328.376
330.922
332.795
333.756
312.852
304.333
287.116
268.289
253.571
245.004
246.286
255.794
271.515
288.103
298.621
310.316
316.865
321.923
326.409
329.092
331.021
332.478
333.533
333.915
332.19
324.934
311.231
298.183
289.157
284.512
286.81
295.248
303.707
313.664
319.175
325.711
328.081
331.026
332.674
333.67
334.364
334.532
334.528
334.562
345.52
339.14
327.756
318.124
312.812
311.711
314.854
322.461
327.628
331.982
336.525
337.776
338.598
339.1
338.47
337.852
337.079
336.379
335.79
335.48
351.503
345.864
336.465
329.06
326.34
328.155
332.564
339.951
345.13
346.431
349.445
348.376
347.363
345.706
343.804
341.859
339.94
338.288
336.981
336.29
350.046
345.226
337.668
332.622
332.195
336.812
343.253
351.14
357.447
357.874
359.131
357.363
354.362
351.627
348.507
345.193
342.118
339.858
338.044
337.137
342.249
338.298
332.219
329.418
331.58
339.309
348.831
358.11
365.632
366.489
366.776
364.121
359.921
356.131
351.819
347.679
344.128
341.152
338.944
337.878
330.108
326.855
321.407
320.268
325.099
336.477
349.952
361.777
370.514
372.859
372.182
369.274
363.919
358.784
353.606
348.873
344.734
341.531
339.181
337.955
317.06
313.828
307.933
306.74
313.611
328.93
346.874
362.259
372.935
377.153
374.997
371.938
365.647
359.561
353.71
348.533
344.221
340.872
338.494
337.438
305.993
302.159
294.683
291.686
299.563
318.465
340.605
359.304
372.479
377.417
375.098
371.649
364.701
358.082
352.105
346.605
341.944
338.643
336.49
335.445
298.272
293.591
283.009
278.006
285.245
307.606
333.126
353.265
367.482
372.916
371.377
366.924
360.229
353.602
347.438
342.281
338.153
335.085
332.986
332.1
294.987
289.494
276.321
268.732
275.703
297.133
322.629
342.883
356.586
362.283
361.786
357.354
351.276
345.082
339.819
335.315
331.673
329.179
327.665
327.047
292.924
288.415
276.858
265.541
269.849
287.332
308.795
326.441
337.902
343.389
344.189
341.191
336.842
332.018
328.061
325.152
322.772
321.099
320.068
319.72
292.293
287.59
282.77
267.765
267.106
276.194
289.778
301.93
310.281
315.401
317.801
317.561
315.797
313.917
312.484
311.398
310.686
310.264
310.159
310.299
301.151
299.176
290.47
273.536
262.439
260.175
263.735
269.207
274.966
280.207
284.201
287.139
289.338
290.914
292.468
294.084
295.531
296.801
297.703
298.234
310.322
316.07
295.016
270.162
249.445
237.204
232.422
232.889
236.157
240.98
246.595
252.446
258.406
264.09
269.13
273.65
277.718
280.725
282.849
284.083
321.815
316.78
289.341
256.026
227.8
208.841
198.961
195.66
197.375
201.71
207.923
216.341
225.892
235.105
243.411
250.804
257.43
262.63
266.006
267.696
328.08
307.674
270.859
232.04
200.365
178.38
165.965
160.75
160.794
164.762
171.542
181.252
193.204
205.575
216.939
227.078
236.152
242.983
247.582
250.045
308.424
283.104
241.306
201.858
170.298
148.255
134.921
129.111
128.492
131.725
138.696
149.56
163.021
177.35
190.822
203.025
214.154
222.924
228.631
231.525
271.236
245.589
205.958
169.152
140.1
119.493
106.849
100.736
100.087
103.437
110.468
121.596
135.753
151.456
166.505
180.362
193.136
203.015
209.635
213.173
226.012
203.269
168.622
136.589
110.981
92.4335
80.8969
75.4755
75.1867
78.9785
86.7272
98.059
112.199
128.504
144.499
159.431
173.341
184.518
191.871
195.779
180.562
161.375
132.489
105.515
83.2179
66.788
56.3805
51.9343
52.7847
57.5993
66.1602
77.9289
92.0905
108.697
125.298
141.03
155.849
167.7
175.843
180.234
139.088
123.246
99.4477
76.694
57.2671
42.3668
33.0868
29.516
31.6556
38.0743
47.8382
60.1816
74.6986
91.7965
109.092
125.441
140.898
153.675
162.472
167.285
103.839
90.7231
70.9124
51.3865
33.7524
19.8771
11.6202
9.31417
12.6814
20.3432
31.4055
44.6336
59.7297
77.3595
95.2238
112.366
128.774
142.452
152.197
157.628
75.815
64.8288
48.0677
30.5509
13.936
0.940845
-6.84834
-8.30722
-3.89523
4.75723
16.8565
31.0474
47.0286
65.5807
84.2351
102.119
119.375
134.75
145.841
151.975
55.8518
46.2184
31.4151
15.3795
-0.356064
-13.0276
-20.2598
-21.4181
-16.9467
-7.95689
4.74811
19.5853
36.4523
56.031
75.4125
94.3195
113.602
130.768
143.782
150.533
44.0578
35.2544
21.7556
6.80782
-8.4575
-20.9609
-27.8139
-29.4319
-25.7556
-17.3034
-4.70283
10.5386
28.1571
48.912
69.4879
89.2641
111.04
130.799
145.722
154.254
39.9598
31.8871
19.2807
5.09138
-10.0954
-22.4417
-29.6904
-32.4795
-30.389
-23.2739
-11.2736
3.87527
22.0786
43.5571
65.1297
87.3557
111.676
134.582
153.942
164.73
43.6757
35.7184
23.7644
9.98986
-5.03692
-17.5853
-26.4256
-31.2446
-31.5219
-26.4427
-15.6467
-0.740354
17.7606
39.7915
62.9599
87.7465
115.553
143.534
167.482
181.84
54.0038
46.3082
35.1457
21.6855
6.6682
-6.73947
-17.5775
-25.6598
-29.5084
-26.8869
-17.4983
-2.9886
16.2135
38.8277
63.0176
90.3065
122.202
155.461
185.049
205.359
69.6898
62.7569
52.4283
39.3755
24.5706
10.2216
-3.4283
-14.8721
-22.1559
-22.3497
-15.0282
-1.28369
17.8373
40.9689
66.2504
94.7878
129.836
169.387
207.81
234.921
90.5705
84.5475
75.0421
62.7905
48.7022
34.0151
18.6588
3.86774
-6.78812
-10.0309
-5.08034
7.02071
25.1974
47.6009
72.9822
102.045
136.001
176.411
223.712
257.381
115.687
110.585
102.461
91.7095
78.721
64.2728
48.1727
31.7492
18.8487
12.7869
14.8568
24.5608
40.1018
59.9751
83.1389
108.751
136.741
168.542
208.662
247.618
142.894
139.038
132.704
124.081
112.968
99.8074
84.6936
68.2719
54.5847
46.7011
45.9499
52.2283
64.0059
78.881
95.9591
114.672
132.301
148.376
168.841
202.019
170.976
168.401
163.817
157.3
148.899
138.122
125.183
110.556
97.6192
89.007
85.8415
88.3396
95.0865
103.833
112.551
119.903
125.349
129.018
133.768
150.082
199.018
197.448
194.728
190.529
184.619
176.431
166.172
154.383
143.145
134.819
130.043
128.677
130.072
131.74
131.302
128.173
121.678
114.079
112.482
118.77
225.416
224.783
223.796
222.026
218.491
212.593
204.749
195.619
186.353
178.604
172.655
167.898
163.756
159.017
151.219
139.073
123.284
107.901
102.199
104.895
249.179
249.396
249.876
249.751
248.369
244.476
238.614
231.534
223.687
216.385
209.546
202.173
193.862
183.509
169.33
151.2
130.356
111.387
103.196
107.556
270.124
270.786
272.244
273.327
273.277
270.936
266.3
260.402
253.352
246.18
238.687
229.483
217.789
203.694
185.943
164.396
141.537
122.708
113.84
116.796
287.76
288.819
290.798
292.692
293.405
291.996
287.965
282.542
275.625
268.238
260.087
249.702
236.561
220.447
201.063
178.699
155.907
138.709
131.475
134.305
301.975
303.263
305.666
307.9
308.968
308.152
304.322
298.918
291.895
283.75
275.016
264.285
250.397
233.761
214.557
193.276
172.336
157.396
149.818
149.897
313.493
314.64
316.938
319.347
320.418
319.851
316.052
310.422
303.079
294.51
285.281
274.175
260.571
244.27
226.227
207.297
188.915
176.251
170.957
173.226
322.392
323.446
325.46
327.642
328.628
328.135
324.486
318.503
311.031
302.028
292.405
281.416
268.194
252.856
236.184
219.587
204.662
194.909
190.494
190.937
329.103
329.987
331.706
333.575
334.288
333.706
330.277
324.078
316.341
307.149
297.376
286.561
274.121
259.659
244.598
230.26
217.492
207.52
199.868
198.449
334.245
334.905
336.193
337.649
338.196
337.272
334.227
327.825
320.158
311.012
301.208
290.698
278.739
265.41
251.522
238.957
228.131
221.353
218.798
225.139
337.993
338.394
339.296
340.328
340.87
339.574
336.958
330.548
322.998
313.969
304.117
293.822
282.559
270.047
257.49
245.747
236.079
229.8
226.904
218.986
340.798
340.973
341.484
342.123
342.631
340.931
338.505
332.665
325.22
316.335
306.8
296.74
285.801
274.068
261.884
251.059
241.751
235.464
232.101
234.961
342.903
342.901
343.078
343.427
343.815
341.921
339.556
334.144
327.167
318.714
309.285
299.317
288.705
277.196
265.454
254.245
245.004
238.913
237.592
236.387
344.556
344.419
344.317
344.444
344.542
342.815
340.48
335.541
328.999
320.738
311.473
301.664
291.242
279.876
267.851
256.551
246.185
237.883
231.913
233.949
345.761
345.668
345.525
345.43
345.18
343.639
341.374
336.987
330.924
322.947
314.004
304.373
293.8
282.33
269.739
256.817
244.893
234.507
228.167
227.232
346.644
346.645
346.644
346.496
345.829
344.541
342.208
338.544
332.82
325.448
316.713
306.996
296.484
284.456
271.141
256.896
242.149
228.885
218.039
217.574
347.395
347.52
347.666
347.471
346.795
345.669
343.095
340.118
334.939
328.018
319.96
310.516
299.551
287.427
272.939
256.74
239.347
220.49
202.332
192.93
348.067
348.299
348.587
348.263
347.694
346.694
344.015
341.712
336.968
331.485
323.895
314.302
303.283
290.352
275.217
256.772
234.846
209.488
176.464
154.552
348.781
348.966
349.222
348.761
348.139
347.158
344.835
343.206
339.768
335.168
328.185
319.402
308.278
294.776
278.238
257.993
231.657
198.281
153.849
84.7863
349.376
349.344
349.457
348.96
348.38
347.225
345.747
344.757
342.887
339.676
333.846
325.414
314.244
300.294
282.46
260.035
229.445
188.084
133.093
-5.67935
349.831
349.58
349.421
348.929
348.526
347.435
347.262
346.948
346.579
344.597
339.82
332.843
321.904
307.233
288.461
264.826
234.657
180.487
128.57
15.4199
350.334
349.907
349.298
348.904
348.806
348.017
349.096
349.318
350.06
350.166
348.183
341.258
330.692
316.467
297.692
268.905
249.754
186.722
135.686
63.5604
351.124
350.449
349.371
349.124
349.6
349.61
350.68
352.034
354.288
355.065
357.532
350.431
340.812
323.23
314.113
273.819
257.595
206.471
149.427
102.877
352.52
351.459
349.905
349.513
350.163
351.118
352.888
355.32
358.206
360.295
369.969
354.546
357.135
326.611
323.617
284.388
254.252
225.073
174.125
137.483
355.085
353.505
351.446
350.948
351.912
353.372
355.443
357.559
362.32
360.743
381.298
353.02
364.411
330.522
319.332
297.627
265.515
248.387
208.239
169.985
359.052
356.852
353.935
353.116
354.251
356.308
358.953
362.009
364.997
366.467
379.647
353.379
354.002
338.632
323.247
317.18
290.637
271.196
236.039
194.677
363.872
361.464
358.096
356.654
357.339
359.215
362.258
363.502
361.967
373.479
347.438
356.779
355.939
355.873
341.287
335.246
309.67
285.592
252.571
210.824
366.899
364.812
361.743
360.099
360.17
360.809
359.887
357.207
358.959
381.483
334.053
372.985
368.071
373.192
354.737
344.497
319.438
292.538
261.652
222.146
369.21
367.212
363.979
362.208
362.085
363.172
365.763
368.98
362.515
400.498
376.815
406.946
378.97
379.306
362.582
348.638
323.974
296.076
266.846
229.118
-178.845
-107.501
-192.173
-217.366
-183.887
-190.636
-200.707
-217.057
-235.566
-255.373
-278.733
-304.124
-327.719
-342.603
-346.445
-336.258
-312.265
-279.994
-239.483
-186.938
-128.869
-78.3462
-31.629
9.87007
38.5415
58.3056
70.3445
76.8522
79.9072
79.6365
76.1178
68.599
59.1526
44.6382
21.1164
-13.8877
-58.261
-104.936
-149.389
-186.994
-215.067
-232.085
-237.348
-232.499
-220.479
-201.913
-178.824
-155.12
-130.412
-105.863
-84.2252
-64.5669
-46.922
-31.8435
-19.7566
-11.4691
-5.19681
-0.601444
1.61657
2.61716
3.23715
2.98698
2.40063
1.55353
0.334169
-1.09588
-2.69311
-4.39067
-5.94503
-7.47166
-9.03406
-10.3772
-11.3657
-11.8896
-11.802
-10.8719
-9.26341
-7.15411