/*--------------------------------*- C++ -*----------------------------------*\
| =========                 |                                                 |
| \\      /  F ield         | OpenFOAM: The Open Source CFD Toolbox           |
|  \\    /   O peration     | Version:  2306                                  |
|   \\  /    A nd           | Website:  www.openfoam.com                      |
|    \\/     M anipulation  |                                                 |
\*---------------------------------------------------------------------------*/
FoamFile
{
    version     2.0;
    format      ascii;
    arch        "LSB;label=32;scalar=64";
    class       surfaceScalarField;
    location    "0.4";
    object      phi;
}
// * * * * * * * * * * * * * * * * * * * * * * * * * * * * * * * * * * * * * //

dimensions      [0 3 -1 0 0 0 0];

oriented        oriented;

internalField   nonuniform List<scalar> 
8520
(
0.00992784
7.21574e-05
0.00978962
0.000138218
0.00962951
0.000160111
0.00946826
0.000161253
0.00930944
0.000158819
0.00914915
0.000160293
0.00898637
0.000162776
0.00882095
0.000165427
0.0086537
0.000167248
0.0084856
0.000168094
0.0083179
0.000167701
0.00815106
0.000166838
0.00798557
0.000165491
0.00782133
0.000164247
0.00765852
0.000162808
0.00749709
0.000161432
0.00733718
0.000159904
0.00717884
0.000158341
0.00702218
0.000156656
0.00686733
0.000154853
0.00671428
0.00015305
0.00656328
0.000150998
0.00641415
0.000149129
0.00626725
0.000146906
0.00612231
0.000144939
0.00597964
0.000142667
0.0058391
0.000140542
0.00570077
0.000138327
0.0055647
0.000136071
0.00543076
0.000133944
0.0052992
0.000131557
0.00516961
0.000129592
0.00504236
0.000127251
0.00491682
0.000125536
0.00479347
0.000123351
0.0046716
0.000121876
0.00455151
0.000120082
0.00443259
0.000118925
0.00431487
0.000117719
0.00419782
0.000117052
0.00408126
0.00011656
0.00396468
0.000116575
0.00384777
0.000116915
0.00372989
0.000117879
0.00361067
0.00011922
0.0034892
0.000121473
0.00336518
0.000124015
0.00323728
0.000127897
0.00310538
0.0001319
0.00296772
0.000137663
0.00282425
0.000143473
0.00267295
0.000151302
0.00251371
0.000159233
0.00234446
0.000169254
0.00216502
0.000179437
0.0019734
0.000191622
0.00176957
0.000203831
0.0015518
0.000217767
0.00132064
0.000231161
0.00107493
0.000245711
0.000816697
0.000258234
0.000546293
0.000270404
0.000270829
0.000275464
1.58586e-06
0.000269243
-0.000243175
0.000244761
-0.000453694
0.000210519
-0.000604106
0.000150412
-0.000679827
7.5721e-05
-0.000658856
-2.09712e-05
-0.000536382
-0.000122473
-0.000305345
-0.000231037
-2.45099e-05
-0.000280835
0.000214177
-0.000238687
0.000321369
-0.000107191
4.24996e-05
0.000278869
-0.000425501
0.000468
-0.000277559
-0.000147941
0.000118756
-0.000396315
0.00016486
-4.61048e-05
0.000181598
-1.67378e-05
0.0100357
3.64839e-05
0.0100798
9.40485e-05
0.0101108
0.000129159
0.0101272
0.00014484
0.0101357
0.000150282
0.0101431
0.000152969
0.0101494
0.000156494
0.0101532
0.000161624
0.0101537
0.000166722
0.0101502
0.000171607
0.0101431
0.000174809
0.0101323
0.000177582
0.0101189
0.000178914
0.0101027
0.000180435
0.0100844
0.000181109
0.0100637
0.000182168
0.0100409
0.000182646
0.0100159
0.000183407
0.00998883
0.000183682
0.00995968
0.000184003
0.00992856
0.00018417
0.00989565
0.000183908
0.00986065
0.00018413
0.00982423
0.000183331
0.00978561
0.000183554
0.00974579
0.000182489
0.00970381
0.000182527
0.00966065
0.000181483
0.00961547
0.000181251
0.00956903
0.000180383
0.00952071
0.000179879
0.00947093
0.000179375
0.00941945
0.000178727
0.00936626
0.000178724
0.00931143
0.000178188
0.0092547
0.000178599
0.00919609
0.000178695
0.00913557
0.000179442
0.00907263
0.000180659
0.00900776
0.000181926
0.00893961
0.000184712
0.00886954
0.000186643
0.00879524
0.000191212
0.00871879
0.000194333
0.0086371
0.000200907
0.00855253
0.000206044
0.00846188
0.000214661
0.00836694
0.000222836
0.00826522
0.000233625
0.00815722
0.000245664
0.00804152
0.000259166
0.00791729
0.000275535
0.00778394
0.000292587
0.00763966
0.000313534
0.00748425
0.000334843
0.00731543
0.000360447
0.00713301
0.00038625
0.00693467
0.000416101
0.00672024
0.000445597
0.00648784
0.00047811
0.00623781
0.000508264
0.00596929
0.00053892
0.0056821
0.000562654
0.00537192
0.000579429
0.00504258
0.000574093
0.00468408
0.000569018
0.0042844
0.000550092
0.00383248
0.000527641
0.00330887
0.000502641
0.00268891
0.000497493
0.0019275
0.000530366
0.0010564
0.000590273
0.000209031
0.000608677
-0.00036355
0.000465389
-0.000508024
0.000423344
-0.00031816
0.000278136
-0.000315378
-0.000150723
-0.000366765
-0.000344928
-0.000282875
-0.000129994
0.000181781
-0.000283058
0.0100141
2.23463e-05
0.0100441
6.41244e-05
0.0100777
9.54966e-05
0.0101074
0.000115191
0.0101313
0.000126353
0.0101522
0.000132028
0.010173
0.000135759
0.010195
0.000139579
0.0102179
0.000143837
0.0102408
0.000148703
0.0102631
0.000152514
0.0102842
0.000156457
0.0103045
0.00015867
0.0103236
0.000161291
0.0103423
0.000162438
0.0103601
0.000164374
0.0103775
0.00016519
0.0103941
0.000166873
0.0104102
0.000167595
0.0104252
0.000168928
0.0104397
0.000169746
0.0104531
0.000170437
0.0104656
0.000171634
0.0104774
0.00017157
0.0104878
0.000173149
0.0104977
0.000172616
0.0105059
0.000174317
0.0105136
0.000173773
0.0105195
0.000175309
0.0105248
0.000175137
0.0105283
0.00017632
0.0105308
0.000176947
0.0105318
0.00017766
0.0105311
0.000179437
0.0105295
0.000179788
0.0105253
0.000182772
0.0105207
0.000183318
0.0105128
0.000187357
0.0105046
0.000188861
0.0104927
0.000193823
0.0104804
0.000197013
0.0104642
0.000202823
0.0104469
0.00020849
0.010426
0.00021524
0.0104028
0.000224131
0.0103765
0.000232345
0.0103463
0.000244828
0.0103135
0.000255651
0.0102754
0.000271771
0.0102345
0.000286541
0.0101871
0.000306585
0.0101363
0.000326315
0.0100779
0.000351035
0.010015
0.000376352
0.00994331
0.000406578
0.00986595
0.000437801
0.00977819
0.000474018
0.00968348
0.000510812
0.00957649
0.000552586
0.00946123
0.000593366
0.00933129
0.000638206
0.00919087
0.000679336
0.00903214
0.00072139
0.00885563
0.000755938
0.00864407
0.000785645
0.00840063
0.000812459
0.00811195
0.000838776
0.00777507
0.000864523
0.00738206
0.00089565
0.00693789
0.000941661
0.00645924
0.00100902
0.00596581
0.0010837
0.00541472
0.00115977
0.00468893
0.00119119
0.00391865
0.00119362
0.00304104
0.00115575
0.00185311
0.00103721
0.000537535
0.00097065
-0.000292854
0.000700395
0.000447471
-0.000558545
0.0100069
1.54292e-05
0.0100267
4.42953e-05
0.0100518
7.04329e-05
0.010077
8.99865e-05
0.0101002
0.00010314
0.0101223
0.00010993
0.010143
0.000115068
0.0101643
0.000118302
0.0101863
0.000121847
0.0102095
0.000125443
0.0102332
0.000128905
0.0102569
0.000132713
0.0102805
0.000135027
0.0103037
0.000138108
0.0103271
0.000139098
0.0103499
0.000141583
0.0103732
0.000141888
0.0103958
0.000144211
0.0104192
0.000144257
0.0104416
0.000146471
0.0104648
0.000146567
0.0104869
0.000148353
0.0105096
0.000148933
0.0105312
0.000149905
0.0105531
0.000151254
0.0105743
0.000151411
0.0105952
0.000153489
0.0106157
0.000153203
0.0106354
0.000155697
0.010655
0.000155474
0.0106733
0.000158059
0.0106917
0.000158528
0.0107085
0.000160857
0.0107253
0.000162612
0.0107406
0.000164524
0.0107554
0.000167923
0.010769
0.000169745
0.0107816
0.000174816
0.0107932
0.000177197
0.0108032
0.000183839
0.0108127
0.000187516
0.0108199
0.000195582
0.0108268
0.000201669
0.0108312
0.000210828
0.0108347
0.000220618
0.0108362
0.000230856
0.0108358
0.000245176
0.0108341
0.0002574
0.0108295
0.000276366
0.010824
0.000292062
0.0108148
0.000315761
0.0108048
0.000336266
0.0107907
0.000365155
0.0107756
0.000391472
0.010756
0.000426133
0.0107349
0.000458901
0.0107093
0.000499656
0.010681
0.000539156
0.0106485
0.000585077
0.0106102
0.000631591
0.0105687
0.000679734
0.0105155
0.00073256
0.0104572
0.000779715
0.010377
0.000836056
0.0102804
0.000882284
0.0101525
0.000940396
0.0100027
0.000988544
0.00981227
0.00105496
0.00959492
0.001113
0.00933498
0.0012016
0.00906243
0.00128157
0.0087467
0.00139943
0.00839524
0.00151123
0.00794893
0.0016375
0.00743659
0.00170595
0.00682571
0.00176663
0.00611601
0.00174691
0.00534015
0.00174651
0.0042593
0.00178124
0.0017387
0.00296808
0.0100044
1.10553e-05
0.0100166
3.20892e-05
0.010035
5.1985e-05
0.0100562
6.87705e-05
0.010078
8.13831e-05
0.0100989
8.90639e-05
0.0101192
9.47344e-05
0.0101397
9.78316e-05
0.0101606
0.000100914
0.0101825
0.000103521
0.010205
0.000106414
0.0102281
0.000109679
0.0102514
0.000111648
0.0102746
0.000114927
0.0102982
0.000115535
0.0103211
0.000118613
0.0103449
0.000118181
0.0103678
0.000121269
0.0103918
0.000120289
0.0104147
0.000123523
0.0104389
0.000122421
0.0104617
0.000125531
0.0104857
0.000124864
0.0105084
0.000127224
0.0105321
0.000127627
0.0105547
0.000128804
0.0105775
0.00013065
0.0106
0.000130669
0.0106219
0.000133874
0.0106442
0.000133118
0.0106648
0.00013745
0.0106868
0.000136543
0.0107061
0.000141568
0.0107274
0.000141298
0.0107454
0.000146515
0.0107656
0.000147713
0.0107824
0.000152962
0.0108012
0.000156074
0.0108168
0.000161582
0.0108337
0.000166898
0.0108482
0.00017298
0.0108629
0.000180902
0.0108765
0.000188125
0.0108887
0.00019859
0.0109009
0.000208413
0.0109111
0.000220714
0.0109213
0.000234929
0.0109297
0.000248986
0.0109378
0.000268237
0.0109444
0.00028551
0.0109508
0.000309377
0.0109552
0.00033187
0.0109603
0.000360017
0.0109624
0.000389412
0.0109668
0.000421736
0.0109666
0.000459105
0.0109701
0.000496142
0.0109683
0.000540903
0.0109693
0.000584076
0.0109662
0.000634744
0.0109617
0.000684171
0.0109529
0.000741402
0.0109381
0.000794523
0.010913
0.000861104
0.0108791
0.00091624
0.0108273
0.000992169
0.0107608
0.00105503
0.0106749
0.0011409
0.0105643
0.00122355
0.0104395
0.00132641
0.0102855
0.00143559
0.0101125
0.00157242
0.00991632
0.00170742
0.00969093
0.0018629
0.00941287
0.00198401
0.00906123
0.00211827
0.00860869
0.00219944
0.00801818
0.00233702
0.0073668
0.00243262
0.00255187
0.00655363
0.0100032
7.84814e-06
0.0100117
2.35845e-05
0.0100257
3.7953e-05
0.010043
5.14741e-05
0.0100626
6.18329e-05
0.0100823
6.93145e-05
0.0101024
7.46469e-05
0.0101224
7.78101e-05
0.0101427
8.06993e-05
0.0101637
8.24756e-05
0.0101852
8.48943e-05
0.0102078
8.71515e-05
0.0102303
8.9151e-05
0.0102534
9.17296e-05
0.0102763
9.26583e-05
0.0102997
9.52643e-05
0.0103227
9.5171e-05
0.0103461
9.78456e-05
0.0103693
9.70667e-05
0.0103928
0.000100062
0.0104163
9.89478e-05
0.0104396
0.000102242
0.0104632
0.000101219
0.0104862
0.00010425
0.0105098
0.000104038
0.0105324
0.000106158
0.0105556
0.000107422
0.010578
0.0001083
0.0106006
0.000111269
0.0106227
0.00011104
0.0106444
0.000115728
0.0106661
0.000114804
0.0106868
0.000120926
0.0107081
0.000120029
0.0107276
0.00012701
0.010748
0.000127235
0.0107665
0.00013448
0.0107858
0.000136758
0.0108035
0.000143964
0.0108213
0.000149086
0.0108382
0.000156054
0.0108541
0.000165036
0.0108706
0.000171544
0.0108841
0.000185115
0.0109006
0.000191959
0.0109117
0.000209548
0.0109276
0.000219036
0.0109374
0.000239227
0.0109519
0.000253753
0.0109614
0.000276026
0.0109739
0.000296831
0.010984
0.000321785
0.0109945
0.00034953
0.0110059
0.000377949
0.0110146
0.000413111
0.0110278
0.000445888
0.0110352
0.000488689
0.0110498
0.00052636
0.0110563
0.000577527
0.0110711
0.000619926
0.0110748
0.000680558
0.011088
0.000728202
0.0110839
0.000798618
0.0110917
0.000853222
0.0110756
0.000932357
0.0110687
0.000999083
0.0110376
0.00108619
0.0110047
0.00117381
0.0109549
0.0012733
0.0108927
0.00138865
0.0108193
0.00150899
0.0107319
0.00165982
0.0106416
0.00179771
0.0105187
0.0019858
0.0103868
0.00211587
0.0101669
0.00233816
0.00992652
0.00243984
0.00956429
0.00269926
0.00923986
0.00275704
0.00301602
0.00877571
0.0100025
5.3499e-06
0.0100092
1.68663e-05
0.0100205
2.66592e-05
0.0100352
3.68179e-05
0.0100525
4.45307e-05
0.010071
5.07784e-05
0.0100903
5.5329e-05
0.0101102
5.79653e-05
0.01013
6.09006e-05
0.0101508
6.16436e-05
0.0101715
6.42252e-05
0.0101938
6.48499e-05
0.0102154
6.75253e-05
0.0102386
6.84742e-05
0.0102608
7.05009e-05
0.0102845
7.15532e-05
0.0103069
7.27835e-05
0.0103308
7.39502e-05
0.0103534
7.44718e-05
0.0103773
7.61618e-05
0.0104002
7.60439e-05
0.0104238
7.86423e-05
0.0104471
7.78836e-05
0.0104701
8.1264e-05
0.0104939
8.02835e-05
0.0105161
8.3968e-05
0.0105401
8.34105e-05
0.0105615
8.68823e-05
0.0105855
8.73028e-05
0.0106062
9.02788e-05
0.0106297
9.2234e-05
0.01065
9.45091e-05
0.0106726
9.83045e-05
0.0106926
0.000100075
0.010714
0.000105548
0.0107336
0.000107649
0.0107538
0.000114344
0.010773
0.000117536
0.0107916
0.000125343
0.0108105
0.000130218
0.0108276
0.000138967
0.0108458
0.000146848
0.0108618
0.000155458
0.0108786
0.000168352
0.0108945
0.000176078
0.0109093
0.000194749
0.0109254
0.000202939
0.0109384
0.000226235
0.0109546
0.000237559
0.0109666
0.000264032
0.0109824
0.000281027
0.0109947
0.000309482
0.0110094
0.000334771
0.0110234
0.000363952
0.0110369
0.00039965
0.0110532
0.000429621
0.0110658
0.00047604
0.0110841
0.000508068
0.0110957
0.000565876
0.0111156
0.000600077
0.0111248
0.00067132
0.0111444
0.000708676
0.0111505
0.000792459
0.0111654
0.00083832
0.0111664
0.000931413
0.0111717
0.00099376
0.0111632
0.00109472
0.011153
0.00118391
0.0111344
0.00129198
0.0111036
0.00141937
0.0110756
0.00153703
0.0110276
0.00170779
0.0109894
0.0018359
0.0109197
0.00205557
0.0108499
0.00218559
0.0107336
0.00245446
0.0105985
0.00257497
0.0104332
0.00286453
0.0102138
0.00297647
0.00324406
0.00998577
0.0100019
3.46232e-06
0.0100079
1.08039e-05
0.0100174
1.72074e-05
0.0100305
2.37674e-05
0.010046
2.90274e-05
0.0100635
3.32696e-05
0.010082
3.68209e-05
0.0101015
3.83903e-05
0.0101212
4.12769e-05
0.0101419
4.09319e-05
0.0101623
4.38499e-05
0.0101841
4.29875e-05
0.0102055
4.61595e-05
0.0102283
4.56474e-05
0.0102505
4.83356e-05
0.0102738
4.82473e-05
0.0102965
5.00893e-05
0.0103199
5.0491e-05
0.010343
5.14306e-05
0.0103664
5.27792e-05
0.0103898
5.26419e-05
0.0104128
5.55866e-05
0.0104367
5.39959e-05
0.0104591
5.88423e-05
0.0104836
5.58561e-05
0.0105051
6.24168e-05
0.01053
5.85084e-05
0.0105506
6.62419e-05
0.0105758
6.21869e-05
0.0105956
7.04333e-05
0.0106205
6.73707e-05
0.0106399
7.51206e-05
0.0106639
7.42729e-05
0.0106832
8.07734e-05
0.0107059
8.28242e-05
0.0107252
8.83293e-05
0.0107465
9.30424e-05
0.0107658
9.82763e-05
0.0107856
0.000105583
0.0108049
0.000110856
0.0108228
0.000121134
0.0108426
0.000127043
0.0108583
0.000139677
0.0108784
0.00014827
0.0108927
0.000161751
0.0109125
0.000175005
0.0109262
0.000189189
0.0109452
0.000207318
0.0109593
0.000223452
0.0109768
0.000246535
0.0109926
0.000265242
0.0110081
0.000293963
0.0110263
0.000316551
0.0110407
0.000349497
0.0110604
0.000379955
0.0110758
0.000414258
0.0110959
0.000455956
0.0111125
0.000491464
0.0111334
0.000544942
0.0111499
0.000583602
0.0111714
0.000649828
0.0111878
0.000692317
0.0112069
0.00077334
0.0112226
0.00082257
0.0112367
0.000917375
0.0112483
0.000982154
0.0112546
0.00108835
0.0112598
0.00117875
0.0112556
0.00129619
0.0112511
0.00142382
0.0112391
0.00154904
0.0112208
0.00172615
0.0111979
0.00185878
0.0111678
0.00208566
0.0111151
0.00223833
0.0110727
0.00249679
0.0109724
0.00267531
0.0109057
0.00293119
0.0107436
0.00313863
0.0033755
0.0106121
0.0100015
1.98221e-06
0.0100073
5.01461e-06
0.0100157
8.7878e-06
0.0100278
1.16583e-05
0.0100421
1.46762e-05
0.0100589
1.65276e-05
0.0100769
1.88593e-05
0.010096
1.91974e-05
0.0101157
2.16512e-05
0.0101362
2.04229e-05
0.0101566
2.34472e-05
0.0101781
2.14789e-05
0.0101994
2.4858e-05
0.0102218
2.32326e-05
0.0102441
2.60144e-05
0.010267
2.54156e-05
0.0102901
2.69152e-05
0.010313
2.76108e-05
0.0103367
2.77264e-05
0.0103595
2.9983e-05
0.0103835
2.86862e-05
0.0104062
3.28268e-05
0.0104303
2.99408e-05
0.010453
3.61688e-05
0.010477
3.17926e-05
0.0104995
3.99824e-05
0.0105235
3.44583e-05
0.0105456
4.41827e-05
0.0105695
3.82914e-05
0.0105911
4.87764e-05
0.0106146
4.39064e-05
0.010636
5.37063e-05
0.0106587
5.16014e-05
0.01068
5.9431e-05
0.0107016
6.12471e-05
0.0107229
6.69904e-05
0.0107433
7.2663e-05
0.0107646
7.69905e-05
0.0107838
8.64076e-05
0.010805
8.96731e-05
0.0108229
0.00010319
0.010844
0.000105895
0.0108608
0.000122909
0.0108819
0.000127225
0.0108978
0.000145778
0.0109186
0.000154262
0.0109341
0.000173651
0.0109549
0.000186534
0.0109698
0.000208527
0.0109915
0.000224891
0.0110059
0.000250779
0.0110282
0.000271655
0.0110439
0.000300878
0.0110656
0.00032783
0.0110843
0.000361216
0.0111049
0.000393688
0.0111267
0.000434106
0.0111472
0.000471005
0.011171
0.000521163
0.0111921
0.000562435
0.0112173
0.000624702
0.0112386
0.000670976
0.011264
0.000747931
0.0112849
0.000801632
0.0113082
0.00089413
0.0113266
0.000963754
0.0113477
0.0010672
0.0113588
0.00116766
0.0113766
0.00127845
0.0113825
0.00141789
0.0113863
0.00154528
0.0113933
0.00171906
0.0113724
0.00187975
0.0113786
0.00207948
0.0113306
0.00228628
0.0113242
0.00250324
0.0112518
0.00274763
0.0111997
0.00298336
0.0111
0.00323833
0.00350036
0.0109751
0.0100014
5.67358e-07
0.010007
-5.92505e-07
0.0100149
8.67579e-07
0.0100267
-6.86707e-08
0.0100404
9.76655e-07
0.0100568
1.20846e-07
0.0100744
1.2561e-06
0.0100934
2.19883e-07
0.010113
1.98564e-06
0.0101333
1.19779e-07
0.0101539
2.832e-06
0.0101752
2.64848e-07
0.0101966
3.43913e-06
0.0102188
1.05301e-06
0.0102411
3.64844e-06
0.0102639
2.63229e-06
0.0102871
3.71311e-06
0.01031
4.66655e-06
0.0103338
4.01642e-06
0.0103567
7.00998e-06
0.0103806
4.86188e-06
0.0104038
9.60641e-06
0.0104273
6.36789e-06
0.010451
1.2515e-05
0.0104741
8.73057e-06
0.0104981
1.5939e-05
0.0105207
1.18569e-05
0.0105448
2.01382e-05
0.0105672
1.58942e-05
0.0105907
2.52275e-05
0.0106131
2.15188e-05
0.010636
3.07658e-05
0.0106581
2.95221e-05
0.0106807
3.6835e-05
0.0107021
3.98687e-05
0.0107245
4.46103e-05
0.0107452
5.1964e-05
0.010767
5.51323e-05
0.0107874
6.60728e-05
0.0108085
6.85475e-05
0.0108285
8.31976e-05
0.0108491
8.52974e-05
0.0108687
0.000103327
0.0108888
0.000107115
0.0109083
0.000126191
0.0109278
0.000134811
0.0109477
0.00015374
0.010967
0.000167234
0.0109869
0.000188623
0.0110072
0.000204653
0.0110268
0.000231183
0.0110487
0.000249739
0.0110682
0.000281323
0.0110923
0.00030379
0.011112
0.000341458
0.0111385
0.000367192
0.0111594
0.000413195
0.011187
0.00044339
0.0112117
0.000496552
0.0112382
0.000535854
0.011268
0.000594933
0.0112928
0.000646143
0.0113274
0.000713387
0.0113499
0.000779131
0.0113871
0.000856862
0.0114099
0.00094103
0.011442
0.00103507
0.0114712
0.0011385
0.0114912
0.00125843
0.0115246
0.00138445
0.0115348
0.00153513
0.0115605
0.00169329
0.0115646
0.00187569
0.0115699
0.00207421
0.0115671
0.00228904
0.011544
0.00252632
0.0115195
0.00277211
0.0114571
0.00304577
0.0113833
0.00331215
0.00361228
0.0112714
0.0100017
-1.08605e-06
0.010007
-5.93308e-06
0.010015
-7.18067e-06
0.0100267
-1.17393e-05
0.0100404
-1.27594e-05
0.0100569
-1.63013e-05
0.0100744
-1.63222e-05
0.0100934
-1.86864e-05
0.0101132
-1.7848e-05
0.0101332
-1.99284e-05
0.0101542
-1.81684e-05
0.0101751
-2.05704e-05
0.0101969
-1.84096e-05
0.0102188
-2.08454e-05
0.0102414
-1.89498e-05
0.0102643
-2.02052e-05
0.0102874
-1.94362e-05
0.0103107
-1.85862e-05
0.0103342
-1.94985e-05
0.0103575
-1.6342e-05
0.0103812
-1.88411e-05
0.0104048
-1.39322e-05
0.0104284
-1.72208e-05
0.0104523
-1.13884e-05
0.0104755
-1.44818e-05
0.0104998
-8.34193e-06
0.0105226
-1.09756e-05
0.0105469
-4.15467e-06
0.0105696
-6.82866e-06
0.0105934
1.45072e-06
0.0106163
-1.38729e-06
0.0106393
7.70903e-06
0.0106622
6.62229e-06
0.0106847
1.43372e-05
0.0107073
1.72867e-05
0.0107295
2.24726e-05
0.0107516
2.98188e-05
0.0107733
3.34425e-05
0.010795
4.43313e-05
0.0108164
4.71344e-05
0.0108375
6.21671e-05
0.0108592
6.3544e-05
0.0108791
8.3481e-05
0.0109015
8.46505e-05
0.0109208
0.00010697
0.0109431
0.000112471
0.0109632
0.000133638
0.0109848
0.000145665
0.0110061
0.000167291
0.0110282
0.000182603
0.0110496
0.000209693
0.0110737
0.000225719
0.0110957
0.000259257
0.011121
0.000278501
0.0111456
0.000316844
0.0111718
0.000341018
0.0111988
0.000386229
0.0112278
0.000414375
0.0112566
0.000467763
0.0112878
0.000504629
0.0113211
0.000561607
0.0113533
0.000613982
0.0113891
0.000677587
0.0114274
0.000740832
0.0114606
0.000823641
0.0115046
0.000897025
0.0115404
0.000999232
0.0115812
0.00109772
0.0116235
0.00121612
0.0116584
0.00134961
0.0117019
0.00149164
0.0117296
0.00166562
0.011765
0.00184027
0.011783
0.00205613
0.0117991
0.00227303
0.0117942
0.00253116
0.0117801
0.00278624
0.0117361
0.00308976
0.0116614
0.00338685
0.0036986
0.0115751
0.010002
-3.12433e-06
0.0100071
-1.10329e-05
0.010016
-1.60026e-05
0.0100279
-2.36671e-05
0.0100425
-2.73685e-05
0.0100591
-3.29304e-05
0.0100772
-3.43677e-05
0.0100961
-3.76646e-05
0.0101162
-3.78929e-05
0.0101362
-3.99038e-05
0.0101574
-3.94286e-05
0.0101781
-4.12741e-05
0.0102004
-4.06764e-05
0.0102222
-4.26502e-05
0.0102451
-4.18575e-05
0.010268
-4.30997e-05
0.0102912
-4.26424e-05
0.0103147
-4.20426e-05
0.0103382
-4.30127e-05
0.0103617
-3.98462e-05
0.0103856
-4.27817e-05
0.0104091
-3.7427e-05
0.0104332
-4.12668e-05
0.0104571
-3.527e-05
0.0104806
-3.79994e-05
0.0105053
-3.30638e-05
0.0105279
-3.35742e-05
0.0105533
-2.95703e-05
0.0105753
-2.87754e-05
0.0106007
-2.39809e-05
0.0106226
-2.32621e-05
0.0106474
-1.71624e-05
0.0106694
-1.53288e-05
0.0106938
-1.00753e-05
0.0107154
-4.27999e-06
0.0107397
-1.8474e-06
0.0107608
8.70769e-06
0.0107847
9.52465e-06
0.0108057
2.33427e-05
0.0108292
2.36626e-05
0.01085
4.1361e-05
0.0108736
3.99265e-05
0.0108934
6.36743e-05
0.0109183
5.97038e-05
0.0109367
8.85732e-05
0.010963
8.62544e-05
0.0109815
0.000115122
0.0110072
0.000119928
0.0110284
0.000146056
0.0110523
0.000158709
0.0110773
0.000184727
0.0111002
0.000202813
0.0111283
0.000231139
0.0111518
0.000255027
0.0111828
0.000285897
0.0112082
0.00031554
0.0112411
0.000353394
0.0112716
0.000383821
0.0113036
0.000435823
0.0113425
0.000465644
0.0113742
0.00052997
0.0114177
0.000570472
0.0114575
0.000637793
0.0114983
0.000700053
0.0115497
0.000772199
0.0115913
0.000855412
0.0116475
0.000943057
0.0116961
0.00104909
0.0117519
0.0011603
0.0118096
0.00129196
0.0118597
0.00144154
0.0119209
0.00160435
0.0119665
0.00179471
0.0120153
0.00200735
0.0120424
0.00224596
0.0120765
0.00249699
0.0120557
0.00280712
0.0120532
0.00309223
0.0119761
0.00346398
0.00378854
0.0118861
0.0100025
-5.60279e-06
0.0100076
-1.6184e-05
0.0100178
-2.6163e-05
0.0100305
-3.63615e-05
0.0100465
-4.34288e-05
0.0100637
-5.00521e-05
0.0100825
-5.32223e-05
0.0101018
-5.68987e-05
0.0101219
-5.80623e-05
0.0101422
-6.01481e-05
0.0101634
-6.06787e-05
0.0101846
-6.24522e-05
0.010207
-6.30953e-05
0.0102293
-6.49009e-05
0.0102523
-6.48605e-05
0.0102756
-6.63936e-05
0.0102986
-6.56701e-05
0.0103226
-6.60796e-05
0.0103457
-6.61191e-05
0.01037
-6.40636e-05
0.0103935
-6.63787e-05
0.0104176
-6.15271e-05
0.0104416
-6.52342e-05
0.0104659
-5.95898e-05
0.0104896
-6.16279e-05
0.0105147
-5.82194e-05
0.0105374
-5.62359e-05
0.0105634
-5.56112e-05
0.0105853
-5.0685e-05
0.0106115
-5.01396e-05
0.0106335
-4.52791e-05
0.0106588
-4.24998e-05
0.0106815
-3.80258e-05
0.0107058
-3.43122e-05
0.010729
-2.74963e-05
0.0107523
-2.51686e-05
0.0107759
-1.48848e-05
0.0107983
-1.2834e-05
0.0108227
-1.08325e-06
0.0108435
2.8936e-06
0.0108695
1.53539e-05
0.0108885
2.08627e-05
0.0109158
3.64431e-05
0.0109345
4.09365e-05
0.0109618
6.12788e-05
0.0109813
6.68091e-05
0.0110089
8.75374e-05
0.0110289
9.98817e-05
0.0110575
0.000117494
0.0110788
0.000137387
0.0111077
0.000155859
0.0111322
0.000178224
0.011161
0.000202352
0.0111887
0.000227361
0.0112204
0.000254238
0.0112488
0.000287101
0.0112861
0.000316129
0.0113156
0.000354288
0.0113586
0.000392802
0.0113904
0.000433858
0.0114402
0.000480206
0.0114757
0.000534889
0.0115299
0.000583646
0.0115764
0.000653558
0.0116297
0.000718852
0.0116912
0.000793921
0.0117464
0.000887837
0.0118181
0.000977463
0.0118826
0.00109573
0.0119574
0.0012172
0.0120318
0.00136714
0.01211
0.00152616
0.0121823
0.00172242
0.0122553
0.0019343
0.012322
0.0021793
0.0123551
0.00246388
0.0123992
0.00276307
0.0123822
0.00310918
0.0123529
0.00349326
0.00389063
0.0122508
0.0100029
-8.50674e-06
0.010009
-2.22594e-05
0.0100209
-3.80709e-05
0.0100351
-5.05721e-05
0.0100529
-6.1251e-05
0.0100711
-6.81938e-05
0.0100907
-7.28489e-05
0.0101104
-7.66395e-05
0.0101305
-7.81437e-05
0.0101514
-8.10231e-05
0.0101725
-8.17961e-05
0.0101948
-8.47298e-05
0.0102171
-8.54172e-05
0.0102404
-8.81844e-05
0.0102631
-8.75705e-05
0.0102874
-9.06843e-05
0.0103097
-8.80277e-05
0.010335
-9.13435e-05
0.0103571
-8.82412e-05
0.0103828
-8.97004e-05
0.0104055
-8.91149e-05
0.0104306
-8.66628e-05
0.0104545
-8.90837e-05
0.010479
-8.41284e-05
0.0105034
-8.59941e-05
0.0105281
-8.29556e-05
0.010552
-8.00889e-05
0.0105774
-8.10548e-05
0.0106007
-7.39144e-05
0.0106262
-7.56666e-05
0.0106498
-6.88495e-05
0.0106742
-6.69503e-05
0.010699
-6.27795e-05
0.0107218
-5.71717e-05
0.0107478
-5.34358e-05
0.0107692
-4.6638e-05
0.0107961
-4.17262e-05
0.0108163
-3.30762e-05
0.0108443
-2.90899e-05
0.0108629
-1.57346e-05
0.0108927
-1.43684e-05
0.0109095
4.06498e-06
0.0109409
4.97515e-06
0.0109576
2.43127e-05
0.0109882
3.06485e-05
0.0110079
4.70653e-05
0.0110357
5.97334e-05
0.01106
7.56251e-05
0.0110856
9.18649e-05
0.0111133
0.000109716
0.0111389
0.000130266
0.0111697
0.000147362
0.0111961
0.000176036
0.0112296
0.000193778
0.0112607
0.000223171
0.0112925
0.00025531
0.0113332
0.000275408
0.0113652
0.000322337
0.0114083
0.000349633
0.0114537
0.00038848
0.0114911
0.000442784
0.0115513
0.000474721
0.0115936
0.000541385
0.011658
0.000589112
0.011714
0.000662834
0.0117845
0.000723417
0.0118526
0.000819811
0.0119339
0.000896121
0.012015
0.00101466
0.0121082
0.00112401
0.0122031
0.00127225
0.0123018
0.00142745
0.0124094
0.00161479
0.012512
0.00183174
0.0125974
0.00209383
0.0127005
0.0023608
0.0127487
0.00271492
0.0127729
0.00308496
0.0127824
0.00348375
0.0039863
0.0126867
0.0100034
-1.192e-05
0.0100116
-3.04474e-05
0.0100261
-5.26077e-05
0.0100428
-6.724e-05
0.010063
-8.14613e-05
0.010082
-8.72116e-05
0.0101029
-9.37513e-05
0.0101224
-9.6123e-05
0.0101434
-9.91427e-05
0.0101642
-0.000101838
0.0101864
-0.000104012
0.0102091
-0.000107395
0.0102322
-0.000108511
0.0102559
-0.000111895
0.0102791
-0.000110713
0.0103036
-0.000115198
0.0103263
-0.000110704
0.0103516
-0.000116734
0.0103741
-0.000110728
0.0103999
-0.000115501
0.0104231
-0.000112272
0.0104483
-0.000111925
0.0104728
-0.000113549
0.0104972
-0.000108509
0.0105226
-0.000111365
0.0105468
-0.000107169
0.0105719
-0.000105248
0.0105968
-0.000105883
0.0106213
-9.84347e-05
0.0106465
-0.000100869
0.010671
-9.33168e-05
0.0106958
-9.17738e-05
0.0107206
-8.75918e-05
0.010745
-8.15362e-05
0.0107698
-7.82752e-05
0.0107941
-7.09764e-05
0.0108186
-6.61623e-05
0.0108433
-5.78362e-05
0.0108669
-5.27033e-05
0.0108928
-4.16139e-05
0.0109149
-3.64617e-05
0.0109429
-2.39626e-05
0.0109633
-1.53623e-05
0.010993
-5.45457e-06
0.011013
1.06591e-05
0.0110436
1.64809e-05
0.0110653
3.80889e-05
0.0110948
4.60426e-05
0.0111206
6.60734e-05
0.0111481
8.22446e-05
0.0111779
0.00010045
0.011208
0.000117328
0.0112358
0.00014821
0.0112758
0.000153779
0.0112989
0.000200075
0.0113476
0.000206557
0.0113742
0.000248875
0.0114237
0.000272856
0.0114609
0.000312336
0.011511
0.000338422
0.0115588
0.000395004
0.0116117
0.00042178
0.0116736
0.000479485
0.0117293
0.000533431
0.0118063
0.000585818
0.0118726
0.000657093
0.0119611
0.000731394
0.0120468
0.000810346
0.0121447
0.000916798
0.0122605
0.00100823
0.0123626
0.00117013
0.012509
0.00128103
0.0126312
0.00149264
0.0127685
0.00169437
0.0129247
0.00193766
0.013037
0.00224846
0.0131441
0.00260783
0.0132567
0.00297243
0.013243
0.00349745
0.00399559
0.0132337
0.0100044
-1.63266e-05
0.0100164
-4.24755e-05
0.0100355
-7.16788e-05
0.0100558
-8.75314e-05
0.0100788
-0.000104464
0.0100982
-0.000106622
0.0101205
-0.000116061
0.0101393
-0.000114909
0.0101624
-0.000122191
0.0101828
-0.000122271
0.0102073
-0.000128513
0.0102293
-0.0001294
0.0102544
-0.000133586
0.0102772
-0.000134747
0.0103018
-0.00013531
0.0103255
-0.000138874
0.0103493
-0.00013456
0.0103742
-0.000141567
0.0103976
-0.000134173
0.0104232
-0.000141095
0.010447
-0.000136079
0.0104724
-0.00013725
0.0104973
-0.000138466
0.0105217
-0.00013292
0.0105477
-0.000137369
0.0105715
-0.000131013
0.0105977
-0.000131466
0.0106219
-0.000129989
0.0106475
-0.000124069
0.0106724
-0.000125735
0.010697
-0.000117976
0.0107229
-0.000117672
0.0107461
-0.000110802
0.0107735
-0.000108879
0.010795
-9.98227e-05
0.0108235
-9.94965e-05
0.0108443
-8.68848e-05
0.0108729
-8.64398e-05
0.0108938
-7.36375e-05
0.0109221
-6.98865e-05
0.0109434
-5.77586e-05
0.0109714
-5.19752e-05
0.0109938
-3.77945e-05
0.0110203
-3.19716e-05
0.0110462
-1.52678e-05
0.0110706
-7.82357e-06
0.0111001
8.49791e-06
0.0111232
2.29952e-05
0.0111565
3.27921e-05
0.0111789
5.98124e-05
0.0112154
6.39833e-05
0.0112411
9.15929e-05
0.0112762
0.000113107
0.0113106
0.000119359
0.0113451
0.000165563
0.0113825
0.000169228
0.01143
0.000201324
0.0114588
0.000244106
0.0115258
0.000245306
0.0115533
0.000310895
0.011627
0.000321377
0.0116706
0.000378092
0.0117424
0.000407728
0.011808
0.000467867
0.0118838
0.000509936
0.0119638
0.00057715
0.0120658
0.000629392
0.012146
0.00073016
0.0122883
0.000774496
0.0123798
0.000916707
0.0125454
0.00100456
0.0126871
0.00113935
0.0128528
0.00132687
0.0130527
0.00149444
0.0132272
0.00176323
0.0134301
0.00204552
0.0136009
0.00243703
0.0137379
0.00283549
0.0138531
0.00338226
0.0039762
0.0138725
0.0100067
-2.3022e-05
0.010027
-6.28024e-05
0.010052
-9.66854e-05
0.0100771
-0.000112646
0.0101009
-0.000128189
0.0101226
-0.000128358
0.0101444
-0.000137859
0.010165
-0.000135465
0.0101883
-0.000145543
0.0102107
-0.000144646
0.0102358
-0.000153584
0.0102589
-0.000152498
0.0102838
-0.00015855
0.0103069
-0.000157806
0.0103312
-0.000159601
0.0103546
-0.000162343
0.0103784
-0.000158311
0.0104028
-0.000165939
0.010426
-0.000157438
0.0104513
-0.000166362
0.010474
-0.000158776
0.0104999
-0.000163175
0.0105219
-0.000160454
0.0105483
-0.000159349
0.0105697
-0.000158695
0.0105963
-0.000157614
0.0106173
-0.000152465
0.0106435
-0.000156253
0.0106645
-0.000145049
0.0106904
-0.000151615
0.0107108
-0.000138415
0.0107372
-0.000144079
0.0107559
-0.000129429
0.0107839
-0.000136899
0.0108004
-0.000116385
0.0108293
-0.000128311
0.0108458
-0.000103424
0.010873
-0.00011367