/*--------------------------------*- C++ -*----------------------------------*\
| =========                 |                                                 |
| \\      /  F ield         | OpenFOAM: The Open Source CFD Toolbox           |
|  \\    /   O peration     | Version:  2306                                  |
|   \\  /    A nd           | Website:  www.openfoam.com                      |
|    \\/     M anipulation  |                                                 |
\*---------------------------------------------------------------------------*/
FoamFile
{
    version     2.0;
    format      ascii;
    arch        "LSB;label=32;scalar=64";
    class       volVectorField;
    location    "0.4";
    object      U;
}
// * * * * * * * * * * * * * * * * * * * * * * * * * * * * * * * * * * * * * //

dimensions      [0 1 -1 0 0 0 0];

internalField   nonuniform List<vector> 
4400
(
(9.9018 0.0455002 0)
(9.80628 0.0987396 0)
(9.7001 0.120947 0)
(9.57016 0.125819 0)
(9.4182 0.124462 0)
(9.25216 0.123478 0)
(9.08064 0.124117 0)
(8.90817 0.125702 0)
(8.73729 0.126967 0)
(8.56777 0.127418 0)
(8.40016 0.126858 0)
(8.23331 0.125553 0)
(8.06801 0.12376 0)
(7.90319 0.121748 0)
(7.74006 0.119658 0)
(7.57754 0.117541 0)
(7.41706 0.115429 0)
(7.25746 0.113259 0)
(7.10019 0.111068 0)
(6.94405 0.108762 0)
(6.79032 0.106469 0)
(6.638 0.104017 0)
(6.48811 0.101646 0)
(6.33991 0.0990943 0)
(6.19407 0.0966875 0)
(6.05016 0.0940979 0)
(5.90861 0.0916582 0)
(5.76908 0.089103 0)
(5.63199 0.0866717 0)
(5.49679 0.0842088 0)
(5.36429 0.0818191 0)
(5.23335 0.0794904 0)
(5.10541 0.0772297 0)
(4.97844 0.0750663 0)
(4.85473 0.0729816 0)
(4.73135 0.0709912 0)
(4.61131 0.0692198 0)
(4.49093 0.0675055 0)
(4.37367 0.0661781 0)
(4.25537 0.0648589 0)
(4.1397 0.0641448 0)
(4.02224 0.063418 0)
(3.90668 0.0634538 0)
(3.78839 0.0634865 0)
(3.67115 0.0643528 0)
(3.54987 0.0653403 0)
(3.42867 0.0671156 0)
(3.30164 0.0692387 0)
(3.17365 0.0720223 0)
(3.0376 0.0754092 0)
(2.89935 0.0793523 0)
(2.75049 0.0840547 0)
(2.59793 0.0892896 0)
(2.43203 0.0952521 0)
(2.26064 0.101738 0)
(2.07324 0.108683 0)
(1.8785 0.116002 0)
(1.66542 0.123185 0)
(1.44369 0.130243 0)
(1.20207 0.136073 0)
(0.951833 0.140478 0)
(0.681629 0.141342 0)
(0.404461 0.134234 0)
(0.127215 0.103793 0)
(-0.125003 0.0483603 0)
(-0.373229 -0.0339242 0)
(-0.550559 -0.126289 0)
(-0.668632 -0.235117 0)
(-0.679296 -0.358011 0)
(-0.61706 -0.49574 0)
(-0.419148 -0.61989 0)
(-0.164726 -0.703175 0)
(0.119054 -0.567891 0)
(0.274999 -0.219443 0)
(0.382645 0.458277 0)
(-0.312039 0.910797 0)
(-0.485784 0.3221 0)
(-0.0477075 -0.082664 0)
(0.260932 -0.0909742 0)
(0.063856 -0.200712 0)
(10.0003 0.0612002 0)
(10.0317 0.137428 0)
(10.0698 0.173636 0)
(10.1048 0.184941 0)
(10.1328 0.18617 0)
(10.1497 0.186245 0)
(10.1593 0.188263 0)
(10.1606 0.192 0)
(10.1595 0.195866 0)
(10.1534 0.199187 0)
(10.1471 0.201009 0)
(10.1364 0.202114 0)
(10.1257 0.202044 0)
(10.1102 0.201914 0)
(10.0946 0.201248 0)
(10.0741 0.200777 0)
(10.0536 0.200042 0)
(10.0285 0.199419 0)
(10.0033 0.19857 0)
(9.97431 0.197669 0)
(9.94475 0.196669 0)
(9.91217 0.19541 0)
(9.87848 0.194282 0)
(9.84258 0.19275 0)
(9.80507 0.191441 0)
(9.76584 0.189834 0)
(9.72492 0.188257 0)
(9.68225 0.186722 0)
(9.63829 0.184913 0)
(9.59199 0.183506 0)
(9.54533 0.181527 0)
(9.49524 0.180319 0)
(9.44598 0.178264 0)
(9.39201 0.17735 0)
(9.33985 0.175362 0)
(9.28214 0.174751 0)
(9.22645 0.173107 0)
(9.16508 0.17288 0)
(9.10501 0.171848 0)
(9.03978 0.17218 0)
(8.97446 0.171965 0)
(8.9046 0.173159 0)
(8.83322 0.174059 0)
(8.75739 0.176472 0)
(8.67914 0.178832 0)
(8.59537 0.182889 0)
(8.50922 0.187042 0)
(8.415 0.19326 0)
(8.31937 0.199555 0)
(8.21187 0.208423 0)
(8.10427 0.217314 0)
(7.98042 0.229264 0)
(7.85733 0.241229 0)
(7.71359 0.256602 0)
(7.57062 0.271966 0)
(7.4028 0.290945 0)
(7.23482 0.309642 0)
(7.03794 0.331995 0)
(6.83935 0.353212 0)
(6.60798 0.377816 0)
(6.37292 0.399168 0)
(6.10182 0.422744 0)
(5.82449 0.43871 0)
(5.51023 0.453435 0)
(5.19343 0.452202 0)
(4.84555 0.447419 0)
(4.47325 0.415833 0)
(4.0647 0.382017 0)
(3.59804 0.32285 0)
(3.0708 0.280918 0)
(2.39404 0.21676 0)
(1.57071 0.221557 0)
(0.527552 0.153942 0)
(-0.158567 -0.0059687 0)
(-0.553182 0.0384859 0)
(-0.488604 -0.0718788 0)
(-0.142853 -0.681705 0)
(-0.438226 -0.798105 0)
(-0.311115 -0.00965681 0)
(-0.288125 0.602222 0)
(10 0.026808 0)
(10.0167 0.0697123 0)
(10.0429 0.0999056 0)
(10.0746 0.117528 0)
(10.1085 0.126764 0)
(10.1391 0.13194 0)
(10.1675 0.13578 0)
(10.1907 0.140488 0)
(10.2133 0.14516 0)
(10.2327 0.150577 0)
(10.2537 0.154674 0)
(10.2728 0.158927 0)
(10.2938 0.161487 0)
(10.3125 0.164332 0)
(10.3329 0.165922 0)
(10.3505 0.168029 0)
(10.3695 0.169279 0)
(10.3856 0.171064 0)
(10.4029 0.17219 0)
(10.4176 0.173545 0)
(10.4328 0.174737 0)
(10.4463 0.175371 0)
(10.4595 0.176845 0)
(10.4715 0.176715 0)
(10.4825 0.178396 0)
(10.4927 0.177821 0)
(10.5017 0.179445 0)
(10.5097 0.178825 0)
(10.5168 0.18021 0)
(10.5217 0.179813 0)
(10.5271 0.180866 0)
(10.5288 0.180938 0)
(10.5322 0.181723 0)
(10.5305 0.182372 0)
(10.5313 0.183259 0)
(10.5266 0.184255 0)
(10.5236 0.185981 0)
(10.5167 0.187036 0)
(10.5085 0.190322 0)
(10.4999 0.191414 0)
(10.4852 0.196686 0)
(10.4749 0.198223 0)
(10.453 0.205725 0)
(10.4404 0.208528 0)
(10.4112 0.218227 0)
(10.3944 0.223547 0)
(10.3583 0.235192 0)
(10.3351 0.244479 0)
(10.292 0.258066 0)
(10.2603 0.272319 0)
(10.2095 0.288589 0)
(10.1673 0.308147 0)
(10.107 0.328379 0)
(10.0527 0.353315 0)
(9.98025 0.378623 0)
(9.9118 0.408978 0)
(9.82414 0.439925 0)
(9.7384 0.475346 0)
(9.63222 0.511406 0)
(9.5246 0.550524 0)
(9.39615 0.589113 0)
(9.25966 0.627971 0)
(9.10417 0.663502 0)
(8.92857 0.693469 0)
(8.73748 0.716746 0)
(8.50972 0.727467 0)
(8.26159 0.732872 0)
(7.95293 0.726315 0)
(7.62433 0.731211 0)
(7.20967 0.742881 0)
(6.77328 0.796441 0)
(6.22845 0.873456 0)
(5.6766 0.988547 0)
(4.99825 0.982961 0)
(4.41073 0.893556 0)
(3.39263 0.716983 0)
(2.66421 0.458205 0)
(1.21435 0.232156 0)
(-0.216398 -0.207908 0)
(-0.42247 -0.295487 0)
(10.0002 0.0189074 0)
(10.0098 0.0525394 0)
(10.0281 0.0808155 0)
(10.0505 0.101053 0)
(10.0785 0.114891 0)
(10.1045 0.122954 0)
(10.1326 0.128514 0)
(10.1553 0.132467 0)
(10.1804 0.136305 0)
(10.2004 0.140356 0)
(10.2245 0.143853 0)
(10.2444 0.147734 0)
(10.2693 0.150104 0)
(10.29 0.153045 0)
(10.3156 0.154287 0)
(10.3367 0.156412 0)
(10.3624 0.157104 0)
(10.3833 0.158848 0)
(10.4086 0.159396 0)
(10.4295 0.160832 0)
(10.454 0.16154 0)
(10.475 0.162401 0)
(10.4987 0.163598 0)
(10.5197 0.16371 0)
(10.5425 0.165401 0)
(10.5632 0.165041 0)
(10.5849 0.166918 0)
(10.6051 0.166634 0)
(10.6256 0.168325 0)
(10.6447 0.16859 0)
(10.6644 0.169808 0)
(10.6817 0.171168 0)
(10.7008 0.171645 0)
(10.7158 0.174632 0)
(10.734 0.174267 0)
(10.7466 0.17914 0)
(10.7637 0.178323 0)
(10.7736 0.185028 0)
(10.7892 0.184484 0)
(10.7965 0.192812 0)
(10.8097 0.193524 0)
(10.8151 0.203121 0)
(10.8246 0.206459 0)
(10.8285 0.216744 0)
(10.8337 0.224238 0)
(10.8357 0.234907 0)
(10.8367 0.247617 0)
(10.8356 0.259344 0)
(10.833 0.277456 0)
(10.8271 0.291804 0)
(10.8221 0.315104 0)
(10.8092 0.333793 0)
(10.8028 0.362329 0)
(10.781 0.38667 0)
(10.7736 0.420842 0)
(10.7413 0.451527 0)
(10.7325 0.491834 0)
(10.6879 0.528629 0)
(10.6765 0.575132 0)
(10.6177 0.616515 0)
(10.5995 0.667594 0)
(10.5244 0.710961 0)
(10.4911 0.761732 0)
(10.3938 0.8038 0)
(10.3335 0.846903 0)
(10.1993 0.886448 0)
(10.0972 0.922675 0)
(9.90577 0.968827 0)
(9.74745 1.01573 0)
(9.48433 1.08598 0)
(9.25374 1.1679 0)
(8.91122 1.27308 0)
(8.59665 1.3708 0)
(8.15213 1.45532 0)
(7.72126 1.47464 0)
(7.13566 1.51158 0)
(6.51234 1.4844 0)
(5.7638 1.533 0)
(4.82339 1.52156 0)
(3.66041 1.30107 0)
(10.0007 0.0135103 0)
(10.0062 0.0382561 0)
(10.0204 0.0606746 0)
(10.036 0.0775995 0)
(10.0594 0.0907948 0)
(10.0806 0.0986408 0)
(10.1068 0.104698 0)
(10.1277 0.108013 0)
(10.1531 0.111494 0)
(10.1724 0.114344 0)
(10.1971 0.117262 0)
(10.2161 0.120546 0)
(10.2413 0.122583 0)
(10.261 0.125786 0)
(10.287 0.126622 0)
(10.3075 0.129514 0)
(10.334 0.129438 0)
(10.3546 0.132249 0)
(10.381 0.131671 0)
(10.402 0.134529 0)
(10.4277 0.133848 0)
(10.4493 0.13647 0)
(10.4743 0.136278 0)
(10.4964 0.138084 0)
(10.5205 0.138922 0)
(10.5428 0.139599 0)
(10.5661 0.141679 0)
(10.5885 0.141414 0)
(10.6109 0.144504 0)
(10.6325 0.143792 0)
(10.655 0.147517 0)
(10.6746 0.147093 0)
(10.6979 0.15099 0)
(10.7145 0.151576 0)
(10.7389 0.155342 0)
(10.7523 0.157418 0)
(10.7776 0.16128 0)
(10.7875 0.164933 0)
(10.8137 0.169466 0)
(10.82 0.174634 0)
(10.8466 0.180624 0)
(10.8499 0.18719 0)
(10.8757 0.195699 0)
(10.8768 0.20341 0)
(10.9012 0.215535 0)
(10.9 0.224656 0)
(10.9234 0.240773 0)
(10.9188 0.25265 0)
(10.9423 0.272494 0)
(10.9336 0.288706 0)
(10.9574 0.312548 0)
(10.945 0.333998 0)
(10.9683 0.362821 0)
(10.9535 0.390006 0)
(10.9745 0.424809 0)
(10.9601 0.458183 0)
(10.976 0.499246 0)
(10.9637 0.5399 0)
(10.9734 0.5851 0)
(10.9609 0.635645 0)
(10.9658 0.680256 0)
(10.9464 0.741973 0)
(10.9456 0.783828 0)
(10.9129 0.852016 0)
(10.8966 0.895677 0)
(10.8461 0.965957 0)
(10.7995 1.01849 0)
(10.7223 1.10126 0)
(10.6387 1.16632 0)
(10.5151 1.27894 0)
(10.3982 1.36353 0)
(10.2066 1.50412 0)
(10.0594 1.61364 0)
(9.77426 1.74492 0)
(9.59235 1.86205 0)
(9.16565 1.95164 0)
(8.92501 2.05633 0)
(8.26352 2.0963 0)
(7.89374 2.17659 0)
(6.89148 2.15109 0)
(10.0007 0.00970244 0)
(10.0047 0.0280243 0)
(10.0157 0.0447815 0)
(10.0283 0.0586981 0)
(10.0472 0.0699487 0)
(10.0659 0.0776491 0)
(10.0888 0.0834633 0)
(10.1094 0.0869467 0)
(10.1331 0.090168 0)
(10.1531 0.0926148 0)
(10.1767 0.0949978 0)
(10.1963 0.0978642 0)
(10.2206 0.099406 0)
(10.2403 0.10273 0)
(10.2659 0.103052 0)
(10.2855 0.106539 0)
(10.3127 0.105761 0)
(10.3316 0.109361 0)
(10.3601 0.107909 0)
(10.3781 0.111653 0)
(10.4074 0.110027 0)
(10.4247 0.113669 0)
(10.4546 0.112525 0)
(10.4709 0.115393 0)
(10.5017 0.115489 0)
(10.5167 0.117023 0)
(10.5483 0.118852 0)
(10.5619 0.118962 0)
(10.594 0.12249 0)
(10.6063 0.121507 0)
(10.6389 0.126572 0)
(10.6494 0.12507 0)
(10.6825 0.131262 0)
(10.6909 0.130084 0)
(10.7243 0.136721 0)
(10.7309 0.136968 0)
(10.7642 0.143601 0)
(10.7689 0.145966 0)
(10.8022 0.15259 0)
(10.8045 0.157643 0)
(10.8381 0.164177 0)
(10.8377 0.172884 0)
(10.8712 0.179277 0)
(10.869 0.191909 0)
(10.9009 0.199774 0)
(10.8987 0.214794 0)
(10.9273 0.22718 0)
(10.9267 0.24317 0)
(10.9508 0.261558 0)
(10.9526 0.279895 0)
(10.9726 0.303101 0)
(10.9761 0.327064 0)
(10.9937 0.353226 0)
(10.9976 0.386015 0)
(11.0144 0.413723 0)
(11.0187 0.457236 0)
(11.0341 0.487384 0)
(11.0406 0.539061 0)
(11.0523 0.577127 0)
(11.0625 0.630468 0)
(11.068 0.681397 0)
(11.0802 0.734786 0)
(11.0793 0.794425 0)
(11.0845 0.856509 0)
(11.0817 0.917504 0)
(11.0643 0.995051 0)
(11.0626 1.06672 0)
(11.0102 1.15192 0)
(11.0074 1.25795 0)
(10.9074 1.34743 0)
(10.9104 1.48997 0)
(10.7389 1.60833 0)
(10.7636 1.75597 0)
(10.5 1.924 0)
(10.5359 2.04718 0)
(10.1775 2.24328 0)
(10.1511 2.32962 0)
(9.70838 2.53708 0)
(9.49495 2.57673 0)
(9.01117 2.82417 0)
(10.0004 0.00663198 0)
(10.0042 0.02055 0)
(10.0125 0.0322 0)
(10.0243 0.0434786 0)
(10.0392 0.0520097 0)
(10.0571 0.0589946 0)
(10.0765 0.0639829 0)
(10.0972 0.06725 0)
(10.1188 0.0703168 0)
(10.1396 0.0719396 0)
(10.1622 0.0744384 0)
(10.1822 0.0759297 0)
(10.2063 0.0780824 0)
(10.2253 0.0798296 0)
(10.2517 0.0812939 0)
(10.2693 0.0831375 0)
(10.2988 0.0838266 0)
(10.3141 0.0857613 0)
(10.3468 0.0857498 0)
(10.3594 0.0881014 0)
(10.3949 0.0874973 0)
(10.4051 0.0904736 0)
(10.4426 0.0895401 0)
(10.4509 0.0927409 0)
(10.4896 0.0922042 0)
(10.497 0.0949236 0)
(10.5356 0.0956289 0)
(10.5432 0.0972691 0)
(10.5802 0.0996938 0)
(10.5893 0.100132 0)
(10.6237 0.104545 0)
(10.6343 0.10398 0)
(10.6664 0.110289 0)
(10.6776 0.109279 0)
(10.708 0.116953 0)
(10.7192 0.116719 0)
(10.7482 0.124872 0)
(10.7587 0.126766 0)
(10.7872 0.13461 0)
(10.7958 0.139835 0)
(10.8249 0.146911 0)
(10.8306 0.156597 0)
(10.8604 0.162544 0)
(10.864 0.177662 0)
(10.893 0.182781 0)
(10.8965 0.203361 0)
(10.923 0.209504 0)
(10.9282 0.23396 0)
(10.95 0.244509 0)
(10.9599 0.270468 0)
(10.9748 0.289095 0)
(10.9912 0.314444 0)
(10.9998 0.344428 0)
(11.0207 0.367586 0)
(11.0269 0.411227 0)
(11.0491 0.432408 0)
(11.0555 0.48894 0)
(11.0785 0.511998 0)
(11.0848 0.576773 0)
(11.1079 0.607646 0)
(11.1152 0.676951 0)
(11.1335 0.716862 0)
(11.1453 0.795815 0)
(11.1508 0.838781 0)
(11.1719 0.935409 0)
(11.1509 0.987169 0)
(11.1908 1.09066 0)
(11.126 1.18036 0)
(11.1892 1.27261 0)
(11.0769 1.41789 0)
(11.1513 1.51131 0)
(11.0014 1.69502 0)
(11.0718 1.81442 0)
(10.8936 2.02291 0)
(10.9348 2.15177 0)
(10.7443 2.39955 0)
(10.7023 2.49569 0)
(10.5105 2.7928 0)
(10.3311 2.86272 0)
(10.1239 3.15229 0)
(10.0001 0.00441694 0)
(10.0038 0.0140727 0)
(10.0106 0.0219265 0)
(10.0216 0.030071 0)
(10.0344 0.0361511 0)
(10.0512 0.0413256 0)
(10.0688 0.045459 0)
(10.0888 0.0476119 0)
(10.1096 0.0508359 0)
(10.1298 0.0510504 0)
(10.1529 0.054208 0)
(10.1717 0.0538285 0)
(10.1973 0.056995 0)
(10.2141 0.0567558 0)
(10.243 0.0594747 0)
(10.2574 0.0595064 0)
(10.2902 0.0615673 0)
(10.3014 0.0618657 0)
(10.3383 0.0632141 0)
(10.3464 0.0641651 0)
(10.3863 0.0646752 0)
(10.3924 0.0668101 0)
(10.4334 0.066265 0)
(10.4391 0.0697109 0)
(10.4795 0.0683669 0)
(10.4864 0.0728342 0)
(10.5246 0.0712499 0)
(10.5339 0.0762058 0)
(10.5682 0.0750117 0)
(10.5814 0.0800042 0)
(10.6109 0.0800117 0)
(10.6281 0.0845489 0)
(10.653 0.0863297 0)
(10.6728 0.0903746 0)
(10.6946 0.0939669 0)
(10.716 0.0981106 0)
(10.735 0.103436 0)
(10.7575 0.107857 0)
(10.7741 0.115511 0)
(10.7972 0.12014 0)
(10.8121 0.130294 0)
(10.8346 0.136627 0)
(10.8491 0.147437 0)
(10.8699 0.158552 0)
(10.885 0.168164 0)
(10.9034 0.185647 0)
(10.9201 0.194883 0)
(10.9353 0.217955 0)
(10.9541 0.228924 0)
(10.9676 0.256858 0)
(10.9853 0.271335 0)
(11.0027 0.303479 0)
(11.0138 0.323879 0)
(11.0402 0.358893 0)
(11.0433 0.387544 0)
(11.0767 0.424994 0)
(11.0779 0.463646 0)
(11.1103 0.501724 0)
(11.1184 0.556153 0)
(11.1415 0.588544 0)
(11.1625 0.665247 0)
(11.1706 0.694044 0)
(11.2075 0.784043 0)
(11.1954 0.829647 0)
(11.2499 0.917141 0)
(11.2132 0.991609 0)
(11.2837 1.086 0)
(11.2183 1.17842 0)
(11.3045 1.29942 0)
(11.2051 1.41279 0)
(11.3011 1.5525 0)
(11.1799 1.71564 0)
(11.257 1.85091 0)
(11.1391 2.08127 0)
(11.1743 2.20703 0)
(11.0556 2.48303 0)
(11.0472 2.62353 0)
(10.9079 2.90479 0)
(10.8403 3.07219 0)
(10.6665 3.33287 0)
(9.99962 0.00273228 0)
(10.0035 0.00806241 0)
(10.0097 0.0129863 0)
(10.0197 0.0177333 0)
(10.0321 0.0215207 0)
(10.0472 0.0245484 0)
(10.0647 0.0274258 0)
(10.0832 0.0284685 0)
(10.1043 0.0312141 0)
(10.1233 0.0305849 0)
(10.1473 0.0336108 0)
(10.1649 0.032365 0)
(10.1916 0.0354201 0)
(10.2075 0.0344887 0)
(10.2368 0.0369745 0)
(10.251 0.0367617 0)
(10.2833 0.0383954 0)
(10.2954 0.0389233 0)
(10.3308 0.0395945 0)
(10.3409 0.0412857 0)
(10.3785 0.0406534 0)
(10.3873 0.044275 0)
(10.4254 0.0417042 0)
(10.4344 0.0478549 0)
(10.4715 0.0431925 0)
(10.4821 0.0518997 0)
(10.5166 0.0454987 0)
(10.5302 0.0562452 0)
(10.5602 0.0489281 0)
(10.5788 0.0609195 0)
(10.6026 0.0541147 0)
(10.627 0.065809 0)
(10.6439 0.0614868 0)
(10.674 0.0712333 0)
(10.6848 0.070942 0)
(10.7194 0.0784477 0)
(10.7249 0.0819697 0)
(10.7631 0.0883949 0)
(10.7646 0.095015 0)
(10.8044 0.10107 0)
(10.8043 0.111333 0)
(10.8433 0.116801 0)
(10.8432 0.131217 0)
(10.8813 0.137187 0)
(10.8803 0.154551 0)
(10.9188 0.163366 0)
(10.9168 0.18269 0)
(10.9544 0.195523 0)
(10.9548 0.217056 0)
(10.9879 0.235085 0)
(10.9942 0.257903 0)
(11.0215 0.283551 0)
(11.0341 0.307765 0)
(11.0567 0.33942 0)
(11.075 0.370945 0)
(11.0944 0.402926 0)
(11.1172 0.446712 0)
(11.135 0.480556 0)
(11.1621 0.531245 0)
(11.176 0.577121 0)
(11.2118 0.629623 0)
(11.2164 0.687016 0)
(11.2633 0.755388 0)
(11.2575 0.809093 0)
(11.3133 0.909472 0)
(11.2955 0.963097 0)
(11.3591 1.08278 0)
(11.3293 1.16809 0)
(11.3898 1.28564 0)
(11.3594 1.42502 0)
(11.402 1.54155 0)
(11.3712 1.73306 0)
(11.3976 1.86676 0)
(11.3572 2.09455 0)
(11.3599 2.26188 0)
(11.3158 2.51186 0)
(11.2721 2.71906 0)
(11.2323 2.96435 0)
(11.1071 3.22736 0)
(11.0838 3.43671 0)
(9.99941 0.001324 0)
(10.0034 0.00219795 0)
(10.0094 0.00484849 0)
(10.0189 0.00579411 0)
(10.031 0.00775228 0)
(10.0453 0.00820798 0)
(10.0629 0.00992 0)
(10.0804 0.00955413 0)
(10.1019 0.0117858 0)
(10.1202 0.0101264 0)
(10.1443 0.0132854 0)
(10.1621 0.010748 0)
(10.1882 0.0143207 0)
(10.2052 0.011995 0)
(10.2329 0.0148903 0)
(10.2493 0.0139335 0)
(10.2789 0.0152839 0)
(10.2941 0.0161473 0)
(10.326 0.0157854 0)
(10.3398 0.0185741 0)
(10.3738 0.0166744 0)
(10.3863 0.0213148 0)
(10.421 0.0180313 0)
(10.4336 0.0244523 0)
(10.4675 0.0201089 0)
(10.4816 0.0280939 0)
(10.5128 0.0230389 0)
(10.5302 0.0321656 0)
(10.5566 0.0272363 0)
(10.58 0.036634 0)
(10.5985 0.033327 0)
(10.6302 0.0414721 0)
(10.6391 0.0413858 0)
(10.6793 0.0473342 0)
(10.6795 0.0512451 0)
(10.7269 0.0551249 0)
(10.7197 0.0630439 0)
(10.7727 0.0650425 0)
(10.7596 0.077531 0)
(10.8163 0.0774879 0)
(10.8005 0.0948625 0)
(10.8566 0.0939272 0)
(10.8423 0.11449 0)
(10.8952 0.115967 0)
(10.8831 0.13693 0)
(10.9341 0.143611 0)
(10.923 0.164563 0)
(10.9722 0.175815 0)
(10.9649 0.19998 0)
(11.0082 0.212894 0)
(11.0092 0.243529 0)
(11.0449 0.257986 0)
(11.0541 0.293542 0)
(11.0841 0.314895 0)
(11.1015 0.350188 0)
(11.1246 0.384032 0)
(11.1526 0.41876 0)
(11.1689 0.461148 0)
(11.205 0.507283 0)
(11.2189 0.545337 0)
(11.2603 0.615834 0)
(11.2707 0.649029 0)
(11.3214 0.736 0)
(11.3246 0.785793 0)
(11.3818 0.872356 0)
(11.3844 0.955365 0)
(11.4391 1.04257 0)
(11.4396 1.15865 0)
(11.5011 1.26077 0)
(11.4802 1.40495 0)
(11.5571 1.53955 0)
(11.515 1.70434 0)
(11.5835 1.89108 0)
(11.544 2.06265 0)
(11.5683 2.32244 0)
(11.5473 2.49204 0)
(11.5056 2.80218 0)
(11.4959 3.02109 0)
(11.3788 3.28462 0)
(11.3539 3.6039 0)
(9.99978 -0.000178073 0)
(10.0032 -0.00339635 0)
(10.01 -0.00316683 0)
(10.0187 -0.00592984 0)
(10.0312 -0.00578739 0)
(10.0452 -0.00795041 0)
(10.0629 -0.0074162 0)
(10.0807 -0.00914075 0)
(10.1016 -0.00782907 0)
(10.1207 -0.00992467 0)
(10.1439 -0.00757331 0)
(10.1627 -0.0102473 0)
(10.1877 -0.00741467 0)
(10.206 -0.00991129 0)
(10.2323 -0.0076497 0)
(10.2507 -0.00864602 0)
(10.2778 -0.00797127 0)
(10.2964 -0.00675214 0)
(10.3243 -0.00790334 0)
(10.3431 -0.00449749 0)
(10.3715 -0.00708515 0)
(10.3906 -0.00211052 0)
(10.4182 -0.00539566 0)
(10.439 0.000477161 0)
(10.4643 -0.00267434 0)
(10.488 0.00357846 0)
(10.5094 0.000752941 0)
(10.5377 0.0077612 0)
(10.5533 0.00473335 0)
(10.5882 0.0133938 0)
(10.5959 0.00996755 0)
(10.6389 0.0196502 0)
(10.6374 0.0177779 0)
(10.6887 0.0259746 0)
(10.679 0.02847 0)
(10.7372 0.0337311 0)
(10.7201 0.040787 0)
(10.7846 0.0447294 0)
(10.7611 0.0544961 0)
(10.8296 0.0590141 0)
(10.8041 0.0712875 0)
(10.87 0.0760561 0)
(10.8505 0.0916891 0)
(10.9069 0.0977588 0)
(10.8976 0.11466 0)
(10.9447 0.125698 0)
(10.9424 0.141731 0)
(10.9852 0.158512 0)
(10.9861 0.175753 0)
(11.0268 0.196507 0)
(11.0316 0.21697 0)
(11.0697 0.241813 0)
(11.0782 0.267003 0)
(11.1166 0.292519 0)
(11.1265 0.331263 0)
(11.1662 0.348407 0)
(11.181 0.40727 0)
(11.2164 0.421809 0)
(11.2429 0.484581 0)
(11.271 0.522291 0)
(11.307 0.56977 0)
(11.3359 0.639483 0)
(11.3735 0.683472 0)
(11.4046 0.767847 0)
(11.4517 0.831811 0)
(11.4714 0.920318 0)
(11.5356 1.01682 0)
(11.548 1.10963 0)
(11.6099 1.24648 0)
(11.635 1.35214 0)
(11.6762 1.52674 0)
(11.7154 1.66837 0)
(11.7344 1.86193 0)
(11.7745 2.08088 0)
(11.7671 2.2574 0)
(11.8067 2.5804 0)
(11.7369 2.75673 0)
(11.7895 3.10691 0)
(11.6327 3.37641 0)
(11.6465 3.65862 0)
(10 -0.00204296 0)
(10.0032 -0.00874108 0)
(10.011 -0.0115379 0)
(10.0191 -0.0177936 0)
(10.0329 -0.0196412 0)
(10.0468 -0.0243391 0)
(10.0653 -0.0248937 0)
(10.0834 -0.027908 0)
(10.1044 -0.0276219 0)
(10.1241 -0.0298308 0)
(10.1469 -0.0287883 0)
(10.1664 -0.0310292 0)
(10.1906 -0.0294936 0)
(10.21 -0.0318106 0)
(10.2352 -0.0302155 0)
(10.2552 -0.0316533 0)
(10.2804 -0.0308577 0)
(10.3016 -0.0303797 0)
(10.3267 -0.0311026 0)
(10.3492 -0.0282731 0)
(10.3735 -0.0306102 0)
(10.3975 -0.0259199 0)
(10.4201 -0.0290652 0)
(10.4466 -0.0233947 0)
(10.4666 -0.0263495 0)
(10.4958 -0.0202999 0)
(10.5128 -0.0228911 0)
(10.545 -0.0160025 0)
(10.5586 -0.0186513 0)
(10.5947 -0.0104078 0)
(10.6033 -0.0128669 0)
(10.6445 -0.00416564 0)
(10.6477 -0.00468499 0)
(10.6927 0.00276147 0)
(10.6934 0.00589372 0)
(10.7387 0.0113701 0)
(10.7391 0.0184435 0)
(10.7846 0.0223915 0)
(10.7827 0.0334633 0)
(10.8314 0.0356686 0)
(10.8253 0.0520805 0)
(10.8764 0.0514728 0)
(10.8705 0.0740242 0)
(10.9179 0.072072 0)
(10.9179 0.0977519 0)
(10.9592 0.0998899 0)
(10.9646 0.123975 0)
(11.0024 0.133099 0)
(11.0117 0.157771 0)
(11.0466 0.167913 0)
(11.0615 0.202433 0)
(11.0924 0.20753 0)
(11.1127 0.252439 0)
(11.1433 0.261616 0)
(11.1654 0.302897 0)
(11.199 0.331308 0)
(11.2233 0.363273 0)
(11.259 0.405933 0)
(11.2873 0.44662 0)
(11.3242 0.485265 0)
(11.3612 0.548805 0)
(11.3926 0.583966 0)
(11.445 0.666775 0)
(11.4728 0.706897 0)
(11.5283 0.809141 0)
(11.5729 0.863597 0)
(11.6141 0.97495 0)
(11.6805 1.07225 0)
(11.7152 1.17699 0)
(11.7846 1.33581 0)
(11.8287 1.44021 0)
(11.8865 1.65939 0)
(11.9325 1.79996 0)
(11.9869 2.03029 0)
(12.0118 2.28834 0)
(12.037 2.48717 0)
(12.0766 2.84233 0)
(11.9871 3.10329 0)
(12.0608 3.43405 0)
(11.8445 3.79593 0)
(9.99978 -0.00436349 0)
(10.0037 -0.0138936 0)
(10.0121 -0.0209926 0)
(10.0204 -0.0298291 0)
(10.0361 -0.0347136 0)
(10.0499 -0.0408549 0)
(10.0705 -0.0431812 0)
(10.0884 -0.0467027 0)
(10.1104 -0.0477715 0)
(10.1305 -0.0497159 0)
(10.1531 -0.0503064 0)
(10.1735 -0.0517371 0)
(10.1968 -0.0520482 0)
(10.2174 -0.0535495 0)
(10.2418 -0.0533161 0)
(10.2626 -0.0544943 0)
(10.2879 -0.0542177 0)
(10.3089 -0.0537927 0)
(10.3351 -0.0549064 0)
(10.3564 -0.0516137 0)
(10.3826 -0.0550878 0)
(10.4047 -0.0491153 0)
(10.4299 -0.0536587 0)
(10.4536 -0.0472597 0)
(10.4776 -0.049854 0)
(10.5022 -0.0459008 0)
(10.5259 -0.0444801 0)
(10.5502 -0.0432266 0)
(10.5743 -0.0390437 0)
(10.5986 -0.0377443 0)
(10.6218 -0.0336073 0)
(10.6472 -0.0304712 0)
(10.669 -0.0258814 0)
(10.6944 -0.0231778 0)
(10.7175 -0.0144778 0)
(10.7397 -0.0150179 0)
(10.7656 -0.00118147 0)
(10.7864 -0.00334941 0)
(10.8096 0.0130392 0)
(10.8373 0.0116141 0)
(10.8494 0.0307641 0)
(10.8893 0.0278084 0)
(10.8908 0.0538956 0)
(10.9377 0.0459935 0)
(10.9368 0.080552 0)
(10.9833 0.0705702 0)
(10.985 0.107854 0)
(11.0292 0.104553 0)
(11.0354 0.13561 0)
(11.0749 0.147928 0)
(11.0912 0.166892 0)
(11.1201 0.197981 0)
(11.1507 0.207738 0)
(11.1717 0.249607 0)
(11.2089 0.265911 0)
(11.2333 0.299906 0)
(11.2708 0.341758 0)
(11.2984 0.358701 0)
(11.3439 0.424554 0)
(11.3702 0.441237 0)
(11.4194 0.509329 0)
(11.4626 0.551516 0)
(11.4968 0.605439 0)
(11.5637 0.685794 0)
(11.6009 0.729313 0)
(11.6601 0.840208 0)
(11.728 0.898095 0)
(11.775 1.01996 0)
(11.8584 1.12726 0)
(11.9121 1.23453 0)
(12.0025 1.43243 0)
(12.0478 1.52545 0)
(12.1665 1.78275 0)
(12.1697 1.96674 0)
(12.312 2.19381 0)
(12.2935 2.51543 0)
(12.3652 2.78676 0)
(12.3742 3.10907 0)
(12.3336 3.55085 0)
(12.2876 3.82697 0)
(9.99929 -0.00723488 0)
(10.0051 -0.0193725 0)
(10.0129 -0.0320157 0)
(10.0235 -0.0427145 0)
(10.0402 -0.0512466 0)
(10.0561 -0.0580382 0)
(10.078 -0.0621164 0)
(10.0967 -0.0659864 0)
(10.1198 -0.0677629 0)
(10.1399 -0.070241 0)
(10.1631 -0.0713856 0)
(10.1835 -0.0732461 0)
(10.2071 -0.074289 0)
(10.2278 -0.0759641 0)
(10.2526 -0.0762229 0)
(10.2737 -0.07793 0)
(10.2994 -0.077092 0)
(10.3206 -0.0781654 0)
(10.3472 -0.0776197 0)
(10.3684 -0.0765265 0)
(10.3951 -0.0780455 0)
(10.4173 -0.0740983 0)
(10.4426 -0.0770418 0)
(10.467 -0.0722231 0)
(10.4907 -0.0734662 0)
(10.5158 -0.0709914 0)
(10.5403 -0.0680062 0)
(10.5635 -0.0684598 0)
(10.5904 -0.0623988 0)
(10.6122 -0.0628989 0)
(10.6381 -0.0571412 0)
(10.6633 -0.0548454 0)
(10.6836 -0.0503543 0)
(10.7144 -0.0458688 0)
(10.7306 -0.0404358 0)
(10.7624 -0.0359068 0)
(10.7794 -0.0282843 0)
(10.8097 -0.0229479 0)
(10.826 -0.0150879 0)
(10.8605 -0.00613603 0)
(10.8684 0.000303428 0)
(10.9142 0.0131296 0)
(10.9102 0.0197928 0)
(10.9665 0.0351352 0)
(10.9559 0.0422549 0)
(11.0163 0.0630294 0)
(11.0046 0.0661075 0)
(11.0664 0.0965707 0)
(11.0556 0.09708 0)
(11.117 0.128657 0)
(11.1128 0.142867 0)
(11.165 0.158848 0)
(11.179 0.196468 0)
(11.2148 0.20355 0)
(11.2471 0.243062 0)
(11.278 0.271812 0)
(11.3116 0.290184 0)
(11.355 0.347972 0)
(11.3851 0.358285 0)
(11.4322 0.425843 0)
(11.4801 0.445452 0)
(11.5146 0.51814 0)
(11.5845 0.553625 0)
(11.6205 0.620052 0)
(11.6966 0.69956 0)
(11.7449 0.740502 0)
(11.8305 0.870976 0)
(11.8898 0.920012 0)
(11.9794 1.05412 0)
(12.0672 1.18461 0)
(12.1418 1.27902 0)
(12.2749 1.51417 0)
(12.3069 1.63665 0)
(12.4986 1.88023 0)
(12.4956 2.15656 0)
(12.6472 2.39579 0)
(12.699 2.75459 0)
(12.7384 3.15142 0)
(12.706 3.47651 0)
(12.7922 4.04458 0)
(9.99875 -0.0105062 0)
(10.0071 -0.0264642 0)
(10.0138 -0.0450524 0)
(10.0294 -0.0576518 0)
(10.046 -0.0695654 0)
(10.0669 -0.0764912 0)
(10.0885 -0.0817119 0)
(10.1101 -0.0859034 0)
(10.1329 -0.0875632 0)
(10.1542 -0.0914503 0)
(10.1772 -0.091987 0)
(10.1982 -0.095695 0)
(10.2216 -0.0959076 0)
(10.2434 -0.0994421 0)
(10.2674 -0.0981101 0)
(10.2904 -0.102596 0)
(10.3147 -0.0983472 0)
(10.3385 -0.104068 0)
(10.3627 -0.0984737 0)
(10.3874 -0.102742 0)
(10.4103 -0.099875 0)
(10.4377 -0.0991868 0)
(10.4574 -0.100824 0)
(10.489 -0.0959901 0)
(10.5052 -0.0983183 0)
(10.539 -0.0948818 0)
(10.5554 -0.0921303 0)
(10.5871 -0.0935353 0)
(10.6067 -0.0856021 0)
(10.6364 -0.0881988 0)
(10.6547 -0.0809283 0)
(10.6896 -0.07882 0)
(10.6993 -0.0755425 0)
(10.7435 -0.0684001 0)
(10.7463 -0.0665652 0)
(10.7919 -0.0574794 0)
(10.7989 -0.0552838 0)
(10.8359 -0.0431891 0)
(10.8524 -0.043633 0)
(10.8822 -0.0245849 0)
(10.9019 -0.030049 0)
(10.9323 -0.00435129 0)
(10.9496 -0.0106044 0)
(10.983 0.0146331 0)
(10.9991 0.017728 0)
(11.0337 0.0317325 0)
(11.0493 0.0528734 0)
(11.088 0.0537386 0)
(11.0986 0.087472 0)
(11.1471 0.0885508 0)
(11.1512 0.118935 0)
(11.2051 0.134241 0)
(11.2151 0.155013 0)
(11.2607 0.184319 0)
(11.2882 0.200347 0)
(11.323 0.239962 0)
(11.3656 0.257153 0)
(11.3945 0.2965 0)
(11.4562 0.338193 0)
(11.4681 0.349076 0)
(11.5637 0.437682 0)
(11.5611 0.426897 0)
(11.6671 0.528075 0)
(11.6935 0.549681 0)
(11.7761 0.624376 0)
(11.8456 0.698148 0)
(11.9171 0.757977 0)
(12.0214 0.866353 0)
(12.0828 0.958656 0)
(12.227 1.04626 0)
(12.3051 1.24995 0)
(12.4278 1.31058 0)
(12.583 1.56506 0)
(12.6819 1.76295 0)
(12.8044 1.98577 0)
(13.0209 2.32409 0)
(12.9718 2.67342 0)
(13.2431 3.03959 0)
(13.1634 3.56718 0)
(13.1991 4.01312 0)
(9.99685 -0.0144541 0)
(10.0111 -0.0364703 0)
(10.0152 -0.0615168 0)
(10.0404 -0.0757544 0)
(10.0549 -0.091324 0)
(10.0853 -0.0963026 0)
(10.1033 -0.104314 0)
(10.1318 -0.105815 0)
(10.1503 -0.110292 0)
(10.1763 -0.112437 0)
(10.1959 -0.115363 0)
(10.2201 -0.118257 0)
(10.2415 -0.119834 0)
(10.2654 -0.122993 0)
(10.2887 -0.122024 0)
(10.3128 -0.126611 0)
(10.3374 -0.122014 0)
(10.361 -0.128479 0)
(10.3864 -0.122113 0)
(10.4103 -0.127404 0)
(10.4344 -0.12387 0)
(10.4618 -0.123747 0)
(10.4807 -0.125504 0)
(10.5153 -0.120171 0)
(10.5273 -0.12363 0)
(10.5671 -0.118824 0)
(10.5777 -0.117488 0)
(10.6149 -0.117871 0)
(10.6315 -0.110294 0)
(10.6614 -0.113341 0)
(10.6839 -0.104853 0)
(10.7109 -0.104391 0)
(10.7328 -0.099205 0)
(10.762 -0.093908 0)
(10.7828 -0.0900394 0)
(10.8087 -0.0834348 0)
(10.838 -0.0772643 0)
(10.8509 -0.0716501 0)
(10.8946 -0.0616224 0)
(10.8949 -0.058361 0)
(10.9472 -0.0421199 0)
(10.9435 -0.0439358 0)
(10.9962 -0.0188656 0)
(10.9963 -0.0259167 0)
(11.0426 0.0047065 0)
(11.0534 0.000510387 0)
(11.0871 0.0250424 0)
(11.1164 0.037385 0)
(11.1305 0.0456757 0)
(11.1841 0.0752743 0)
(11.1793 0.081955 0)
(11.2469 0.099995 0)
(11.248 0.141642 0)
(11.2975 0.121828 0)
(11.3337 0.200386 0)
(11.3601 0.17118 0)
(11.406 0.241352 0)
(11.4598 0.245178 0)
(11.4721 0.289559 0)
(11.5644 0.319815 0)
(11.5782 0.357343 0)
(11.6566 0.408871 0)
(11.7114 0.432643 0)
(11.7764 0.5127 0)
(11.8573 0.547066 0)
(11.9147 0.605479 0)
(12.051 0.70973 0)
(12.0756 0.737511 0)
(12.2596 0.867726 0)
(12.3294 0.962769 0)
(12.4586 1.06135 0)
(12.6576 1.23365 0)
(12.7253 1.39181 0)
(12.9848 1.56948 0)
(13.1156 1.87111 0)
(13.2741 2.11982 0)
(13.5221 2.52678 0)
(13.6074 2.96885 0)
(13.7118 3.48014 0)
(13.8383 4.08973 0)
(9.99181 -0.0198453 0)
(10.0197 -0.0506282 0)
(10.0174 -0.0824759 0)
(10.0607 -0.0979929 0)
(10.0686 -0.117131 0)
(10.1154 -0.118661 0)
(10.1241 -0.130845 0)
(10.1649 -0.127859 0)
(10.174 -0.138159 0)
(10.2082 -0.135983 0)
(10.2219 -0.144961 0)
(10.2498 -0.143436 0)
(10.2707 -0.149985 0)
(10.2928 -0.149111 0)
(10.3212 -0.151434 0)
(10.3379 -0.153776 0)
(10.3718 -0.15013 0)
(10.3846 -0.157096 0)
(10.4206 -0.149174 0)
(10.4335 -0.1569 0)
(10.4663 -0.150989 0)
(10.4855 -0.152618 0)
(10.5099 -0.153919 0)
(10.5382 -0.147412 0)
(10.5548 -0.153377 0)
(10.5865 -0.144911 0)
(10.6051 -0.147451 0)
(10.6286 -0.143859 0)
(10.6596 -0.139649 0)
(10.6683 -0.139794 0)
(10.712 -0.132967 0)
(10.7117 -0.132323 0)
(10.7587 -0.124515 0)
(10.7583 -0.124963 0)
(10.8038 -0.111742 0)
(10.8026 -0.11679 0)
(10.8511 -0.0982268 0)
(10.8452 -0.102911 0)
(10.8968 -0.086918 0)
(10.8915 -0.0833058 0)
(10.9378 -0.0747887 0)
(10.9413 -0.0614312 0)
(10.979 -0.0586912 0)
(10.9888 -0.0387878 0)
(11.0267 -0.0370463 0)
(11.032 -0.0164591 0)
(11.0804 -0.00949943 0)
(11.0792 0.00823438 0)
(11.1283 0.0178465 0)
(11.146 0.0428253 0)
(11.1628 0.0439687 0)
(11.2299 0.0800093 0)
(11.2073 0.0822683 0)
(11.3004 0.112837 0)
(11.2864 0.1273 0)
(11.363 0.163562 0)
(11.373 0.156284 0)
(11.4558 0.240485 0)
(11.4584 0.192259 0)
(11.5531 0.302488 0)
(11.5957 0.271898 0)
(11.6358 0.352715 0)
(11.7522 0.36504 0)
(11.7839 0.434361 0)
(11.8792 0.452034 0)
(11.994 0.558436 0)
(12.0439 0.534047 0)
(12.2214 0.717029 0)
(12.2766 0.67951 0)
(12.4672 0.846335 0)
(12.6256 0.937929 0)
(12.7198 1.02903 0)
(13.0358 1.20998 0)
(13.1609 1.39788 0)
(13.3984 1.57959 0)
(13.7263 1.90211 0)
(13.908 2.30096 0)
(14.1412 2.69012 0)
(14.4112 3.41765 0)
(14.4624 4.00796 0)
(9.98575 -0.0271421 0)
(10.0332 -0.0689588 0)
(10.0259 -0.100679 0)
(10.0921 -0.11561 0)
(10.0922 -0.128192 0)
(10.1574 -0.128919 0)