/*--------------------------------*- C++ -*----------------------------------*\
| =========                 |                                                 |
| \\      /  F ield         | OpenFOAM: The Open Source CFD Toolbox           |
|  \\    /   O peration     | Version:  2306                                  |
|   \\  /    A nd           | Website:  www.openfoam.com                      |
|    \\/     M anipulation  |                                                 |
\*---------------------------------------------------------------------------*/
FoamFile
{
    version     2.0;
    format      ascii;
    arch        "LSB;label=32;scalar=64";
    class       volScalarField;
    location    "0.2";
    object      p;
}
// * * * * * * * * * * * * * * * * * * * * * * * * * * * * * * * * * * * * * //

dimensions      [0 2 -2 0 0 0 0];

internalField   nonuniform List<scalar> 
4400
(
454.58
453.565
452.658
451.985
451.536
451.229
450.985
450.756
450.523
450.282
450.036
449.788
449.541
449.296
449.051
448.808
448.565
448.321
448.077
447.833
447.589
447.344
447.1
446.857
446.615
446.374
446.136
445.899
445.666
445.437
445.211
444.99
444.775
444.565
444.362
444.166
443.979
443.8
443.63
443.471
443.322
443.184
443.059
442.946
442.846
442.759
442.685
442.625
442.579
442.545
442.524
442.513
442.512
442.518
442.527
442.536
442.54
442.533
442.508
442.459
442.379
442.262
442.106
441.916
441.734
441.63
441.69
441.993
442.589
443.424
444.415
445.176
445.416
445.217
445.153
445.186
445.692
445.8
445.384
445.277
453.118
452.776
452.344
451.902
451.511
451.186
450.918
450.682
450.459
450.234
450.003
449.766
449.525
449.282
449.039
448.796
448.554
448.311
448.069
447.826
447.583
447.339
447.096
446.854
446.612
446.372
446.134
445.898
445.666
445.436
445.21
444.989
444.774
444.564
444.36
444.164
443.975
443.795
443.624
443.462
443.311
443.171
443.043
442.926
442.823
442.732
442.654
442.59
442.539
442.501
442.475
442.459
442.453
442.454
442.459
442.464
442.465
442.456
442.43
442.381
442.301
442.185
442.031
441.848
441.667
441.562
441.629
441.984
442.676
443.719
444.963
445.963
445.842
444.979
444.63
444.472
444.865
445.545
445.5
445.446
452.572
452.407
452.15
451.832
451.498
451.183
450.902
450.652
450.423
450.201
449.978
449.749
449.514
449.274
449.032
448.79
448.547
448.305
448.063
447.821
447.578
447.336
447.094
446.852
446.611
446.371
446.134
445.898
445.665
445.435
445.209
444.987
444.77
444.559
444.353
444.154
443.963
443.779
443.603
443.436
443.279
443.132
442.995
442.869
442.754
442.65
442.558
442.478
442.409
442.351
442.303
442.265
442.234
442.21
442.186
442.166
442.138
442.106
442.056
441.994
441.906
441.803
441.681
441.567
441.487
441.516
441.709
442.112
442.74
443.558
444.417
445.045
445.223
445.08
445.199
445.453
446.236
447.069
445.874
445.048
452.157
452.057
451.883
451.65
451.385
451.112
450.85
450.604
450.375
450.154
449.934
449.712
449.484
449.251
449.014
448.774
448.533
448.292
448.051
447.81
447.569
447.327
447.086
446.845
446.605
446.366
446.128
445.892
445.658
445.428
445.201
444.978
444.759
444.545
444.336
444.134
443.937
443.749
443.566
443.393
443.226
443.07
442.921
442.783
442.653
442.534
442.424
442.324
442.233
442.151
442.077
442.011
441.949
441.891
441.835
441.778
441.717
441.649
441.572
441.484
441.387
441.284
441.189
441.113
441.098
441.165
441.36
441.672
442.132
442.68
443.297
443.823
444.241
444.481
444.695
444.854
445.065
445.247
445.324
445.666
451.857
451.788
451.664
451.49
451.277
451.045
450.806
450.572
450.345
450.124
449.906
449.686
449.462
449.233
449
448.764
448.525
448.285
448.044
447.804
447.562
447.321
447.08
446.839
446.599
446.359
446.121
445.885
445.65
445.419
445.19
444.965
444.743
444.526
444.314
444.107
443.906
443.71
443.522
443.339
443.164
442.997
442.837
442.686
442.54
442.405
442.276
442.157
442.042
441.936
441.835
441.737
441.645
441.551
441.462
441.365
441.27
441.163
441.055
440.937
440.82
440.705
440.604
440.53
440.503
440.538
440.651
440.853
441.144
441.515
441.94
442.372
442.776
443.073
443.329
443.487
443.766
444.073
444.589
444.713
451.639
451.587
451.49
451.352
451.177
450.976
450.761
450.54
450.318
450.099
449.881
449.662
449.44
449.214
448.984
448.751
448.514
448.275
448.035
447.795
447.554
447.313
447.072
446.831
446.59
446.35
446.111
445.873
445.638
445.405
445.174
444.946
444.722
444.501
444.285
444.073
443.866
443.664
443.468
443.278
443.093
442.915
442.744
442.578
442.42
442.266
442.121
441.978
441.844
441.711
441.584
441.457
441.334
441.207
441.081
440.951
440.816
440.676
440.531
440.384
440.232
440.095
439.956
439.857
439.768
439.747
439.753
439.847
439.985
440.197
440.456
440.728
441.018
441.238
441.476
441.659
441.937
442.228
442.549
442.664
451.48
451.438
451.357
451.24
451.089
450.912
450.716
450.508
450.293
450.077
449.86
449.642
449.421
449.197
448.969
448.738
448.503
448.266
448.026
447.786
447.545
447.304
447.062
446.82
446.579
446.338
446.098
445.859
445.622
445.387
445.153
444.923
444.695
444.471
444.25
444.033
443.82
443.612
443.408
443.209
443.016
442.826
442.644
442.464
442.292
442.12
441.959
441.795
441.64
441.482
441.33
441.174
441.021
440.863
440.702
440.54
440.365
440.195
440.005
439.83
439.631
439.462
439.27
439.119
438.966
438.854
438.772
438.729
438.743
438.779
438.88
438.975
439.111
439.222
439.353
439.49
439.645
439.861
440.017
440.239
451.368
451.331
451.26
451.156
451.021
450.86
450.678
450.48
450.273
450.06
449.845
449.626
449.406
449.183
448.956
448.726
448.493
448.256
448.018
447.778
447.536
447.294
447.051
446.809
446.567
446.325
446.083
445.843
445.603
445.366
445.13
444.896
444.665
444.436
444.211
443.988
443.77
443.554
443.343
443.136
442.933
442.733
442.538
442.346
442.158
441.972
441.79
441.61
441.431
441.253
441.073
440.893
440.709
440.522
440.328
440.132
439.922
439.714
439.489
439.266
439.033
438.802
438.567
438.336
438.12
437.905
437.728
437.553
437.427
437.304
437.229
437.157
437.109
437.082
437.052
437.074
437.08
437.191
437.269
437.53
451.296
451.262
451.196
451.1
450.975
450.823
450.65
450.459
450.258
450.048
449.833
449.615
449.395
449.172
448.946
448.717
448.484
448.248
448.01
447.769
447.527
447.284
447.04
446.797
446.553
446.309
446.067
445.824
445.583
445.342
445.103
444.866
444.631
444.398
444.167
443.939
443.714
443.493
443.273
443.058
442.844
442.634
442.428
442.223
442.02
441.82
441.62
441.422
441.22
441.024
440.816
440.615
440.4
440.185
439.96
439.729
439.488
439.236
438.978
438.703
438.429
438.134
437.843
437.535
437.241
436.926
436.64
436.335
436.064
435.778
435.527
435.272
435.033
434.826
434.612
434.469
434.314
434.295
434.306
434.519
451.261
451.228
451.164
451.072
450.951
450.804
450.635
450.448
450.249
450.041
449.826
449.608
449.388
449.165
448.939
448.709
448.476
448.241
448.002
447.76
447.518
447.274
447.029
446.784
446.539
446.293
446.049
445.803
445.56
445.316
445.073
444.833
444.593
444.356
444.12
443.887
443.655
443.426
443.2
442.975
442.753
442.533
442.314
442.097
441.88
441.665
441.449
441.232
441.012
440.794
440.564
440.338
440.096
439.854
439.598
439.336
439.056
438.771
438.466
438.149
437.821
437.467
437.114
436.723
436.35
435.926
435.531
435.089
434.669
434.213
433.782
433.327
432.879
432.469
432.032
431.688
431.356
431.151
431.069
431.164
451.26
451.226
451.163
451.071
450.95
450.802
450.633
450.446
450.247
450.038
449.824
449.605
449.385
449.161
448.935
448.704
448.471
448.234
447.995
447.752
447.508
447.263
447.017
446.771
446.523
446.275
446.029
445.78
445.534
445.287
445.042
444.797
444.553
444.311
444.07
443.83
443.594
443.357
443.123
442.89
442.657
442.429
442.197
441.97
441.739
441.509
441.278
441.043
440.807
440.566
440.316
440.066
439.799
439.53
439.245
438.949
438.638
438.311
437.968
437.599
437.222
436.806
436.383
435.922
435.448
434.93
434.409
433.836
433.25
432.637
431.988
431.336
430.655
429.99
429.329
428.709
428.16
427.727
427.434
427.391
451.294
451.258
451.193
451.097
450.972
450.819
450.644
450.455
450.253
450.042
449.826
449.606
449.386
449.161
448.934
448.702
448.467
448.229
447.988
447.744
447.499
447.252
447.004
446.756
446.506
446.257
446.008
445.756
445.508
445.256
445.008
444.759
444.51
444.264
444.016
443.773
443.528
443.285
443.044
442.801
442.562
442.321
442.079
441.842
441.595
441.355
441.106
440.857
440.603
440.342
440.073
439.799
439.512
439.211
438.907
438.57
438.232
437.865
437.478
437.069
436.632
436.162
435.667
435.13
434.562
433.949
433.287
432.597
431.829
431.038
430.194
429.284
428.369
427.416
426.453
425.536
424.675
423.936
423.371
423.03
451.364
451.325
451.255
451.152
451.016
450.853
450.669
450.472
450.265
450.05
449.832
449.612
449.391
449.165
448.936
448.703
448.466
448.225
447.983
447.736
447.49
447.241
446.992
446.741
446.489
446.237
445.985
445.731
445.479
445.224
444.971
444.718
444.464
444.215
443.96
443.713
443.459
443.211
442.963
442.71
442.465
442.212
441.962
441.712
441.454
441.2
440.939
440.67
440.406
440.121
439.837
439.541
439.229
438.91
438.572
438.211
437.84
437.433
437.01
436.554
436.063
435.543
434.971
434.366
433.705
432.978
432.219
431.356
430.443
429.46
428.371
427.239
426.006
424.747
423.427
422.121
420.879
419.709
418.762
418.065
451.472
451.43
451.352
451.234
451.081
450.902
450.705
450.497
450.282
450.064
449.843
449.623
449.4
449.173
448.941
448.705
448.466
448.223
447.978
447.73
447.481
447.231
446.979
446.727
446.471
446.218
445.961
445.705
445.449
445.189
444.936
444.674
444.42
444.162
443.903
443.651
443.388
443.137
442.876
442.62
442.366
442.1
441.846
441.581
441.314
441.049
440.771
440.492
440.209
439.909
439.606
439.294
438.955
438.621
438.25
437.867
437.464
437.021
436.564
436.06
435.527
434.943
434.317
433.629
432.886
432.064
431.17
430.19
429.087
427.922
426.591
425.171
423.641
421.989
420.244
418.481
416.704
415.027
413.493
412.316
451.628
451.578
451.485
451.343
451.166
450.963
450.748
450.527
450.304
450.081
449.86
449.638
449.413
449.184
448.948
448.71
448.467
448.222
447.974
447.724
447.473
447.221
446.966
446.713
446.453
446.198
445.937
445.678
445.419
445.154
444.898
444.629
444.374
444.107
443.845
443.587
443.315
443.063
442.789
442.53
442.264
441.993
441.728
441.453
441.174
440.901
440.606
440.318
440.019
439.702
439.389
439.05
438.7
438.342
437.946
437.542
437.109
436.63
436.151
435.591
435.022
434.395
433.68
432.962
432.106
431.196
430.218
429.053
427.837
426.452
424.873
423.172
421.274
419.201
416.937
414.618
412.149
409.757
407.495
405.545
451.844
451.78
451.657
451.478
451.264
451.029
450.793
450.557
450.328
450.103
449.881
449.658
449.43
449.197
448.957
448.715
448.468
448.221
447.971
447.718
447.467
447.211
446.955
446.698
446.436
446.179
445.911
445.654
445.383
445.122
444.856
444.585
444.327
444.049
443.791
443.516
443.247
442.983
442.703
442.44
442.162
441.885
441.612
441.324
441.043
440.751
440.452
440.148
439.836
439.503
439.181
438.815
438.461
438.077
437.655
437.251
436.758
436.284
435.757
435.154
434.578
433.857
433.131
432.325
431.394
430.419
429.303
428.052
426.682
425.082
423.296
421.299
418.991
416.437
413.613
410.515
407.237
403.85
400.556
397.475
452.143
452.048
451.874
451.637
451.37
451.096
450.835
450.587
450.355
450.129
449.907
449.68
449.448
449.209
448.965
448.718
448.469
448.219
447.967
447.712
447.459
447.2
446.942
446.682
446.417
446.157
445.884
445.627
445.347
445.088
444.811
444.541
444.276
443.99
443.733
443.444
443.177
442.901
442.617
442.346
442.06
441.777
441.494
441.199
440.908
440.608
440.299
439.987
439.657
439.322
438.973
438.603
438.22
437.832
437.377
436.974
436.436
435.961
435.4
434.755
434.178
433.374
432.636
431.766
430.744
429.741
428.463
427.167
425.649
423.875
421.898
419.598
416.917
413.862
410.362
406.32
401.952
397.233
392.398
387.736
452.559
452.396
452.137
451.817
451.481
451.166
450.884
450.633
450.401
450.174
449.948
449.713
449.474
449.228
448.978
448.728
448.476
448.223
447.97
447.711
447.457
447.193
446.935
446.668
446.403
446.136
445.863
445.599
445.316
445.056
444.768
444.501
444.223
443.94
443.671
443.38
443.108
442.819
442.541
442.249
441.97
441.668
441.385
441.082
440.78
440.476
440.154
439.84
439.498
439.156
438.801
438.395
438.048
437.57
437.179
436.701
436.147
435.722
435.026
434.474
433.814
432.939
432.266
431.248
430.225
429.117
427.834
426.383
424.755
422.885
420.742
418.093
415.193
411.67
407.4
402.436
396.552
389.85
382.472
375.761
453.104
452.764
452.331
451.888
451.494
451.168
450.899
450.662
450.435
450.205
449.971
449.728
449.483
449.233
448.981
448.73
448.477
448.222
447.969
447.707
447.451
447.185
446.924
446.653
446.387
446.114
445.841
445.571
445.285
445.021
444.728
444.459
444.172
443.89
443.61
443.32
443.039
442.746
442.464
442.161
441.883
441.568
441.286
440.968
440.669
440.346
440.027
439.698
439.347
439.009
438.647
438.227
437.901
437.373
437.017
436.497
435.93
435.521
434.715
434.263
433.462
432.674
431.888
430.954
429.821
428.611
427.477
425.796
423.884
422.359
419.51
417.125
413.742
410.133
404.791
399.493
391.471
382.187
370.055
358.392
454.564
453.554
452.647
451.971
451.518
451.21
450.965
450.735
450.498
450.252
450.002
449.75
449.496
449.245
448.99
448.74
448.485
448.229
447.972
447.711
447.45
447.185
446.919
446.65
446.379
446.107
445.83
445.557
445.273
444.999
444.713
444.433
444.15
443.862
443.578
443.292
442.999
442.716
442.419
442.129
441.836
441.533
441.237
440.928
440.62
440.3
439.985
439.644
439.307
438.962
438.576
438.205
437.81
437.337
436.955
436.39
435.955
435.331
434.784
434.072
433.415
432.569
431.767
430.859
429.672
428.565
427.353
425.33
424.115
421.693
419.454
416.645
413.552
409.079
404.462
397.647
389.605
376.972
360.754
335.208
445.093
444.831
444.694
444.669
444.748
444.84
444.851
444.892
445.031
445.42
445.754
446.666
446.718
445.578
444.997
445.354
446.263
447.4
448.404
449.931
445.307
444.824
444.49
444.311
444.373
444.578
444.544
444.543
444.761
445.368
445.791
445.829
445.357
444.21
443.824
444.27
445.322
446.76
447.926
449.52
444.689
444.551
444.31
444.226
444.312
444.272
444.335
444.51
444.773
445.27
445.421
444.55
442.78
441.448
441.195
441.867
443.336
445.198
446.606
448.153
446.21
445.615
443.554
442.43
441.899
443.287
444.34
445.262
446
446.387
445.567
443.458
440.563
438.785
438.445
439.174
440.72
442.631
444.431
446.082
444.459
443.34
442.189
441.737
442.259
442.82
443.967
446.314
447.727
447.826
446.306
443.15
439.153
436.762
435.975
436.535
438.331
440.358
442.243
443.972
442.502
442.161
441.796
441.656
441.868
442.573
445.633
447.642
449.041
449.094
447.129
443.483
439.2
437
435.959
436.437
438.605
439.557
440.74
442.732
440.288
440.495
440.633
441.109
441.914
443.575
445.766
447.763
449.411
449.336
447.54
444.559
441.118
438.37
436.624
436.508
437.305
437.973
440.22
444.43
437.761
438.25
438.808
439.7
440.978
442.795
444.86
447.076
448.529
448.779
447.527
445.038
442.339
440.362
439.712
440.564
441.638
442.259
444.783
450
434.884
435.432
436.269
437.387
438.882
440.838
443.053
445.25
446.936
447.746
447.652
446.397
444.669
442.286
440.638
440.442
440.515
442.509
446.184
451.129
431.502
432.099
432.971
434.218
435.894
437.879
440.288
442.792
444.994
446.229
446.448
446.339
446.245
446.124
446.256
447.279
448.947
449.151
452.598
461.58
427.571
428.1
428.994
430.26
432.021
434.225
436.745
439.498
442.611
446.015
449.58
451.091
447.334
442.457
443.755
447.09
449.829
450.551
450.325
454.848
423.059
423.392
424.236
425.541
427.335
429.745
432.659
435.723
438.62
440.828
442.26
442.528
441.305
442.078
445.86
449.206
451.162
451.428
453.594
457.386
417.744
417.907
418.596
419.933
421.882
424.335
427.52
431.403
435.529
439.03
441.485
443.132
444.445
447.465
450.98
453.264
454.011
452.028
449.76
450.796
411.535
411.354
411.878
413.17
415.407
418.292
421.362
424.645
428.395
432.513
436.679
441.087
444.994
448.168
450.138
451.182
451.347
451.144
448.511
450.114
404.149
403.439
403.745
404.958
407.271
411.089
416.008
420.79
424.472
427.349
430.327
434.992
440.137
444.555
448
450.24
451.475
450.376
448.393
449.005
395.103
393.736
393.699
395.211
397.656
400.727
405.084
410.704
416.88
422.732
427.909
432.535
437.032
441.491
445.892
448.606
449.028
447.336
445.367
446.023
383.718
381.093
380.632
382.843
387.759
393.275
398.039
402.043
406.943
413.564
420.765
427.243
432.744
437.677
442.322
444.573
444.485
443.032
442.129
442.942
369.237
365.06
364.16
365.613
369.485
376.626
385.988
395.001
402.201
408.12
414.29
420.844
426.817
432.155
436.508
439.25
440.113
439.73
439.798
440.507
347.499
343.312
346.116
351.03
355.314
360.301
368.782
380.655
391.961
400.647
407.287
413.779
419.993
425.614
430.217
433.897
435.901
436.977
437.891
439.23
306.672
306.749
313.268
321.856
333.113
346.397
358.909
370.037
381.107
391.215
399.621
406.719
413.116
419.046
424.288
429.038
432.673
434.929
436.765
438.609
264.255
284.555
285.474
281.707
292.124
317.999
342.112
358.886
370.837
381.644
391.172
399.432
406.692
413.089
418.93
424.767
429.589
432.867
435.974
438.472
280.452
277.428
267.937
254.601
259.331
286.681
320.763
345.469
360.276
372.056
382.841
392.354
400.572
407.561
413.831
419.981
425.703
430.614
434.747
437.253
265.347
265.773
252.447
232.693
234.948
263.558
299.942
330.59
350.3
363.243
374.735
384.889
393.652
401.056
407.731
414.357
421.034
426.972
431.433
434.217
266.697
260.076
240.278
219.812
222.371
246.355
285.058
318.659
341.774
356.823
368.191
378.114
387.032
394.594
401.321
408.11
414.838
421.186
426.403
429.28
270.628
261.146
239.343
220.752
221.688
248.008
275.3
310.544
336.786
352.309
363.019
372.364
380.813
388.242
394.94
401.64
408.386
414.599
419.434
421.791
282.157
271.245
253.1
237.407
245.254
259.614
279.067
310.33
333.775
349.109
358.651
366.653
374.31
381.619
388.548
395.135
401.185
406.546
410.911
413.528
282.988
276.888
265.482
261.063
267.728
278.481
297.82
320.216
339.362
349.056
355.888
362.137
368.341
374.724
381.101
387.187
392.729
397.855
402.274
404.763
280.819
276.748
272.615
274.421
280.847
293.383
316.985
338.313
347.393
352.557
355.697
359.039
362.98
367.635
373.046
378.601
383.833
388.598
392.613
394.853
275.098
273.045
271.208
277.764
286.882
302.189
328.383
348.508
359.605
356.417
354.776
355.345
357.55
360.774
365.12
369.899
374.289
378.405
382.001
383.903
269.67
269.001
269.506
276.681
288.842
301.811
324.65
352.55
361.726
356.009
351.32
349.341
350.273
352.888
356.661
360.82
364.545
367.923
370.857
372.454
265.216
265.212
267.203
273.485
286.982
301.008
319.164
343.781
349.961
349.721
342.49
339.065
339.257
342.066
346.075
350.166
353.495
356.38
359.006
360.558
260.728
260.936
264.04
270.445
281.053
293.644
308.416
324.148
330.836
331.078
327.126
323.435
323.824
327.687
332.506
336.928
340.476
343.619
346.325
347.844
255.349
255.573
258.974
264.464
272.395
281.112
291.337
299.381
303.974
303.62
303.151
301.379
303.192
309.565
316.62
322.139
326.208
329.715
332.57
334.021
248.944
248.661
251.451
255.379
260.289
264.675
269.301
270.271
270.248
269.565
271.646
273.425
278.326
288.624
298.58
305.544
310.592
314.887
318.04
319.539
241.522
240.263
241.733
243.676
245.102
245.226
243.986
238.292
232.669
231.552
235.55
240.808
249.827
264.904
278.561
287.733
294.174
299.368
302.964
304.631
234.266
231.645
231.065
230.983
228.906
224.758
218.132
206.862
196.548
193.868
198.61
206.719
220.465
240.25
257.235
268.702
277.084
283.504
287.667
289.766
228.435
224.633
221.886
219.285
213.614
205.119
193.745
177.991
164.312
159.909
164.643
174.921
192.598
216.228
236.042
249.82
260.177
267.958
272.932
275.442
224.442
220.809
214.727
209.103
200.228
187.822
172.592
153.732
137.391
131.626
136.514
148.858
169.575
195.644
217.404
233.103
245.068
253.594
258.931
261.897
221.88
220.722
209.648
200.545
189.005
174.018
156.201
135.45
117.69
110.878
115.898
129.928
153.159
180.758
203.249
219.888
232.461
241.341
247.482
250.555
219.427
222.9
207.939
194.568
180.364
164.337
145.543
124.109
105.831
99.0233
104.214
118.974
143.17
170.936
193.709
210.81
223.452
232.073
238.254
241.269
218.153
218.493
207.071
191.297
174.956
158.929
140.887
120.412
102.153
95.6962
100.936
115.843
140.114
166.806
188.758
205.296
217.254
225.691
231.645
234.562
222.47
212.21
202.915
189.198
173.773
158.819
142.856
124.985
106.481
101.796
107.558
122.551
144.881
168.683
188.421
203.021
213.885
221.945
227.412
229.833
228.75
216.201
202.84
190.171
177.144
164.462
151.634
135.821
121.55
117.791
123.56
137.378
156.907
176.608
192.585
204.378
213.328
219.98
224.5
227.058
228.86
219.418
205.188
193.881
183.817
174.359
165.432
154.096
143.815
141.181
146.013
156.995
172.295
187.287
198.804
207.441
214.546
220.056
224.19
226.086
225.077
216.238
207.248
199.741
193.325
187.849
182.677
176.103
169.786
167.923
170.785
178.054
188.356
198.059
205.625
212.164
217.43
221.1
223.95
225.608
222.131
218.079
212.076
207.561
204.418
202.318
200.871
198.46
194.995
193.247
193.782
197.368
202.863
208.016
212.221
216.351
219.799
222.363
224.991
226.26
221.877
219.402
216.836
215.44
215.369
216.147
217.429
217.925
216.389
214.438
212.835
213.205
214.507
215.855
217.933
220.618
222.823
224.497
226.08
226.481
221.819
221.321
221.386
222.526
225.103
227.843
230.86
232.452
232.1
229.385
226.309
224.371
223
222.565
223.359
224.457
225.416
225.925
226.63
227.643
221.963
222.422
224.159
227.039
231.286
235.487
239.576
241.447
241.729
238.351
234.413
231.303
228.79
227.137
226.81
226.95
227.475
228.325
228.945
228.871
220.802
221.921
224.855
228.796
233.773
238.709
243.037
245.174
245.889
242.208
238.039
234.296
231.371
229.911
229.649
229.713
230.102
230.074
229.344
230.131
218.247
219.72
222.799
226.874
231.793
236.833
241.03
243.656
245.261
241.988
238.151
235.034
232.709
231.33
230.86
230.697
230.788
231.512
232.167
232.406
213.867
214.999
217.801
221.339
225.532
230.13
234.102
237.78
239.516
238.272
235.827
233.517
231.72
231.144
231.156
231.69
232.816
233.795
233.626
233.735
207.704
208.483
210.233
212.508
215.494
219.288
223.163
227.543
230.024
231.369
230.679
230.534
230.433
230.911
231.822
232.853
233.596
234.557
235.72
236.819
200.298
200.164
200.509
201.21
202.703
205.483
209.57
214.485
218.337
222.3
224.302
226.105
227.728
229.558
231.111
232.977
235.212
237.496
239.069
238.948
191.933
191.077
189.929
188.714
188.596
190.396
194.596
200.107
205.623
211.921
216.305
221.094
224.615
227.918
231.183
234.374
236.998
238.873
240.195
242.126
183.714
182.01
179.663
176.645
174.896
175.803
180.003
186.169
193.718
201.771
208.328
216.085
221.393
226.229
230.487
234.383
238.038
241.652
244.906
245.875
176.93
174.464
170.811
166.382
163.418
163.662
167.574
173.875
182.982
192.516
201.158
211.067
218.104
224.395
230.319
235.94
240.937
244.772
246.9
248.968
171.733
168.864
164.27
158.672
154.951
154.729
158.285
164.904
174.567
184.784
195.968
206.953
215.88
223.837
230.95
237.09
242.446
247.477
252.315
254.896
168.914
165.94
160.94
154.434
150.146
149.442
152.212
159.173
169.23
179.877
192.185
204.292
214.456
223.394
231.555
239.173
246.35
253.009
257.241
258.882
169.522
166.182
160.973
153.965
149.309
148.031
150.214
156.533
166.172
177.505
190.857
203.684
214.741
224.663
233.678
242.015
249.468
255.886
262.105
266.63
172.884
169.505
164.046
156.944
152.151
150.294
151.844
157.861
166.87
177.942
191.319
204.508
216.101
226.355
235.69
244.424
253.023
262.219
270.194
273.148
178.623
175.644
170.157
163.158
158.471
156.095
156.832
162.215
170.475
181.144
194.215
206.977
218.614
229.141
238.914
248.416
257.519
265.681
272.648
279.415
187.587
184.66
179.342
172.568
167.588
164.917
165.401
169.701
176.659
186.497
198.616
210.769
222.121
232.501
242.072
250.948
259.289
268.134
279.633
286.332
199.208
196.257
191.074
184.583
179.254
176.14
175.923
179.407
185.176
193.653
204.377
215.331
225.841
235.616
245.078
254.437
263.615
271.692
277.386
280.207
212.182
209.635
204.758
198.401
193.537
189.985
188.749
190.9
195.403
202.476
211.364
220.736
229.834
238.347
247.11
256.676
265.116
268.117
263.548
273.856
226.688
224.316
219.877
213.815
208.871
205.123
203.592
204.405
207.016
212.163
219.084
226.267
233.193
239.865
247.466
255.83
264.793
274.607
271.71
270.107
242.943
240.575
236.164
230.733
225.55
221.373
219.068
218.778
219.871
222.861
227.135
231.78
236.288
240.569
245.821
253.433
264.054
277.394
289.356
270.284
259.445
257.439
253.399
248.186
243.457
239.057
235.784
233.953
233.126
233.91
235.631
237.309
238.474
240.046
243.634
249.942
258.298
266.927
274.359
266.046
275.536
273.98
270.614
265.72
261.079
256.658
252.856
249.698
246.902
245.126
243.686
242.226
240.398
238.981
238.995
242.813
251.292
260.414
254.037
256.091
290.773
289.717
287.044
283.152
278.485
273.765
269.316
265.188
260.498
256.14
251.741
247.165
241.765
236.435
232.365
231.953
237.518
247.833
239.903
248.797
304.788
303.986
302.031
298.882
294.932
290.406
285.404
279.974
273.582
266.826
259.38
251.478
242.887
233.707
223.547
214.55
213.137
225.435
223.552
231.762
317.996
317.323
315.604
312.852
309.503
305.376
300.244
294.03
286.037
276.765
266.582
255.658
243.595
229.158
212.441
195.308
187.133
198.152
204.958
210.702
329.393
329.279
328.076
325.909
322.734
318.659
313.342
306.344
297.335
286.222
273.675
259.485
243.89
225.317
202.325
177.784
163.437
169.777
182.682
189.058
339.209
339.242
338.664
337.03
334.288
330.226
324.668
317.123
307.37
294.664
280.102
263.664
244.99
222.338
195.1
165.097
144.398
145.242
163.021
170.774
347.594
347.767
347.331
345.942
343.608
339.678
334.244
326.356
315.985
302.582
286.65
268.211
247.782
223.642
194.21
160.443
134.148
132.679
151.328
159.471
354.422
354.726
354.583
353.459
351.268
347.423
341.99
334.13
323.755
310.079
293.736
275
253.688
228.428
198.854
164.421
136.238
131.792
149.184
161.289
360.101
360.329
360.516
359.524
357.419
353.644
348.337
340.624
330.372
317.388
301.393
282.948
262.024
237.642
209.229
178.166
155.957
155.881
170.667
177.365
364.691
364.876
365.34
364.283
362.2
358.625
353.432
346.047
336.238
323.825
308.656
291.624
272.033
249.644
225.016
201.504
183.39
177.153
183.765
190.889
368.409
368.567
369.336
368.075
366.092
362.651
357.575
350.63
341.342
329.829
315.745
299.843
282.515
263.864
244.31
226.252
210.605
201.217
208.833
220.514
371.409
371.567
372.45
371.109
369.338
366.056
361.089
354.541
346.041
335.155
322.458
308.285
293.224
277.892
262.906
249.382
241.823
244.678
250.604
250.715
373.853
374.025
374.662
373.644
372.211
369.168
364.483
358.21
350.24
340.58
329.168
316.228
303.42
290.542
278.153
267.833
260.591
258.204
257.332
259.866
376.014
376.185
376.24
376.092
374.783
372.02
367.775
362.024
354.604
345.457
335.424
323.795
311.748
300.696
289.69
280.924
275.026
270.656
272.24
275.554
378.09
378.316
377.741
378.81
377.198
374.769
370.983
365.516
358.705
350.462
340.717
330.413
318.951
308.523
299.25
291.09
287.193
288.063
294.591
301.891
380.148
380.391
379.735
381.538
379.479
377.477
374.005
369.251
362.779
354.947
345.906
336.244
325.418
314.611
306.203
298.776
295.419
297.178
300.727
296.414
382.06
382.152
382.087
383.555
381.76
380.13
376.978
372.366
366.539
359.458
350.581
341.166
330.859
319.712
310.381
303.007
299.436
297.484
296.304
303.59
383.698
383.595
384.046
384.556
384.397
382.825
379.464
375.296
369.81
363.149
354.917
345.409
335.427
323.677
313.958
304.105
297.76
295.234
297.36
296.066
385.088
385.051
385.885
385.897
387.211
385.016
381.875
377.942
372.868
366.315
358.683
349.347
339.316
327.052
314.967
304.303
294.408
289.45
286.677
290.024
386.124
386.345
387.029
387.477
388.888
386.721
383.922
379.954
374.973
369.07
361.622
352.567
342.324
329.948
316.167
302.892
290.333
280.756
274.17
269.174
386.729
386.967
387.333
388.531
388.508
387.607
385.279
381.71
376.888
370.959
364.328
355.404
345.02
332.332
317.24
302.118
285.01
268.795
249.232
232.912
387.126
387.306
387.808
388.57
387.938
388.166
386.335
382.857
378.711
373.355
366.618
358.325
347.65
335.634
319.08
300.735
278.617
253.304
224.037
159.996
387.433
387.518
388.177
388.265
388.385
388.031
386.058
383.697
380.199
375.424
369.342
361.819
350.995
338.004
321.335
300.373
272.661
235.237
197.39
64.4099
388.013
387.747
387.726
387.761
387.8
386.918
386.147
384.67
381.986
378.366
372.664
365.017
355.347
342.299
323.792
300.467
277.711
220.906
180.165
85.798
387.882
387.235
385.915
385.747
385.761
385.818
385.869
384.935
383.683
380.802
376.743
370.313
360.302
347.35
332.676
299.064
285.558
227.729
173.986
125.308
386.801
385.573
383.797
383.11
383.311
384.627
384.77
385.45
385.539
384.898
381.072
375.388
369.601
349.745
344.417
305.216
283.523
243.083
184.104
153.599
386.073
384.617
382.877
381.517
382.143
383.645
383.84
384.768
385.902
387.322
389.197
378.846
381.696
353.5
345.358
315.894
278.482
258.597
214.229
180.623
386.534
384.942
383.118
381.603
382.887
384.802
385.778
386.768
391.301
388.728
395.721
381.291
385.545
359.826
343.267
327.596
293.045
279.576
247.579
209.343
388.096
386.458
384.316
382.469
382.875
383.995
383.42
386.125
388.384
393.469
401.97
383.398
374.52
368.264
354.702
346.441
321.447
299.207
269.794
231.927
390.147
388.693
386.67
385.08
385.839
387.226
387.775
390.247
393.065
393.653
387.654
394.282
386.685
385.679
368.526
359.532
338.605
312.34
281.666
246.168
391.97
390.889
388.78
386.355
385.303
387.439
390.878
393.624
394.995
395.454
384.445
413.319
393.607
395.673
376.02
361.378
342.39
317.817
288.132
255.015
392.897
392.268
390.467
388.171
387.97
389.896
393.665
399.851
398.256
412.693
404.264
413.079
397.464
399.103
379.119
359.642
341.755
319.762
291.893
260.433
-119.037
-68.2613
-119.066
-141.63
-127.532
-132.884
-160.266
-185.764
-192.011
-177.575
-164.891
-140.129
-117.28
-99.32
-86.6596
-84.8252
-89.2158
-100.56
-116.118
-134.565
-151.312
-163.281
-169.772
-170.022
-163.89
-152.422
-136.29
-115.226
-89.6461
-63.5451
-35.2711
-5.85218
20.7755
45.587
66.7105
83.3156
95.6426
103.814
108.347
110.507
111.319
110.622
107.7
104.502
103.173
103.959
106.318
105.917
99.3259
85.0798
70.7553
64.4062
65.0549
67.912
72.7269
76.7824
74.6532
66.1985
48.7415
25.8188
1.00321
-20.7725
-36.8235
-45.0476
-46.78
-42.6253
-34.1633
-23.2559
-13.1579
-4.85977
1.25456
5.6528
8.68827
10.7754
11.806
12.1502
11.3282
9.37775
6.297
1.8571
-37.7459
-64.2662
-105.169
-161.632
-153.815
-164.509
-183.958
-201.85
-211.026
-188.61