/*--------------------------------*- C++ -*----------------------------------*\
| =========                 |                                                 |
| \\      /  F ield         | OpenFOAM: The Open Source CFD Toolbox           |
|  \\    /   O peration     | Version:  2306                                  |
|   \\  /    A nd           | Website:  www.openfoam.com                      |
|    \\/     M anipulation  |                                                 |
\*---------------------------------------------------------------------------*/
FoamFile
{
    version     2.0;
    format      ascii;
    arch        "LSB;label=32;scalar=64";
    class       surfaceScalarField;
    location    "0.2";
    object      phi;
}
// * * * * * * * * * * * * * * * * * * * * * * * * * * * * * * * * * * * * * //

dimensions      [0 3 -1 0 0 0 0];

oriented        oriented;

internalField   nonuniform List<scalar> 
8520
(
0.00992783
7.21679e-05
0.00978961
0.000138223
0.00962951
0.000160103
0.00946825
0.00016126
0.00930946
0.000158789
0.00914913
0.000160326
0.00898638
0.000162748
0.00882094
0.000165446
0.00865369
0.000167244
0.00848563
0.000168066
0.00831786
0.000167763
0.0081511
0.000166763
0.00798552
0.000165576
0.00782137
0.00016415
0.00765848
0.000162891
0.00749714
0.000161342
0.00733717
0.000159975
0.00717891
0.000158253
0.0070222
0.000156715
0.00686739
0.000154806
0.00671433
0.000153058
0.00656333
0.000151006
0.00641423
0.000149096
0.00626729
0.000146939
0.0061224
0.000144889
0.00597972
0.000142684
0.00583921
0.000140512
0.00570091
0.000138302
0.00556485
0.000136057
0.00543097
0.000133876
0.00529939
0.00013158
0.00516993
0.00012946
0.00504261
0.000127324
0.00491727
0.000125343
0.00479386
0.00012341
0.00467216
0.000121696
0.00455209
0.000120072
0.00443331
0.000118777
0.00431568
0.000117631
0.00419879
0.000116894
0.00408235
0.000116434
0.00396595
0.000116402
0.00384919
0.000116764
0.00373153
0.000117656
0.00361245
0.000119078
0.00349131
0.000121146
0.00336736
0.000123946
0.00323994
0.000127419
0.00310803
0.000131916
0.00297097
0.000137058
0.00282739
0.000143579
0.00267679
0.000150601
0.00251737
0.000159415
0.00234887
0.000168508
0.00216917
0.0001797
0.00197826
0.000190904
0.00177408
0.000204183
0.00155698
0.000217102
0.00132536
0.000231614
0.0010803
0.000245064
0.000821398
0.0002589
0.000550956
0.000270443
0.000271561
0.000279394
-6.26307e-06
0.000277824
-0.000259182
0.000252919
-0.000472751
0.000213569
-0.000619987
0.000147236
-0.000686154
6.61674e-05
-0.000642598
-4.35556e-05
-0.000487735
-0.000154863
-0.000210233
-0.000277502
9.55661e-05
-0.000305799
0.000368418
-0.000272852
0.000447009
-7.85908e-05
-1.03753e-05
0.000457384
-0.000409261
0.000398886
-7.09742e-05
-0.000338287
0.000284026
-0.000355
0.000207716
7.63099e-05
0.000180339
2.73772e-05
0.0100357
3.64825e-05
0.0100798
9.40787e-05
0.0101108
0.000129127
0.0101272
0.000144858
0.0101358
0.000150229
0.0101431
0.000153039
0.0101494
0.000156443
0.0101531
0.000161663
0.0101537
0.000166718
0.0101502
0.000171559
0.010143
0.000174929
0.0101323
0.000177423
0.0101188
0.000179098
0.0101028
0.000180205
0.0100843
0.000181331
0.0100638
0.000181901
0.0100408
0.000182903
0.010016
0.000183094
0.00998876
0.000183956
0.00995984
0.000183731
0.00992853
0.000184362
0.00989577
0.00018377
0.00986069
0.000184181
0.0098243
0.000183322
0.00978568
0.000183507
0.00974585
0.00018252
0.00970391
0.000182454
0.00966071
0.0001815
0.0096156
0.000181162
0.00956912
0.000180357
0.00952085
0.000179848
0.0094711
0.000179209
0.00941961
0.000178819
0.00936655
0.000178405
0.00931166
0.000178297
0.00925505
0.00017831
0.0091965
0.000178617
0.00913593
0.000179344
0.00907326
0.000180306
0.00900817
0.000181979
0.00894056
0.000184048
0.00886998
0.000186982
0.00879655
0.00019019
0.0087193
0.000194911
0.00863877
0.000199607
0.00855325
0.000206664
0.0084638
0.000213399
0.00836806
0.000223161
0.00826731
0.000232666
0.00815882
0.000245542
0.00804377
0.000258629
0.00791937
0.000275005
0.00778638
0.000292402
0.00764211
0.000312777
0.00748692
0.00033489
0.00731805
0.000359772
0.00713579
0.00038645
0.00693719
0.000415696
0.00672249
0.00044632
0.00648924
0.000478308
0.00623764
0.000510504
0.00596739
0.000540691
0.0056791
0.000567681
0.00537343
0.000583501
0.00504638
0.000579965
0.00469178
0.000568174
0.00429099
0.000548017
0.00384089
0.00051627
0.00330675
0.000490589
0.00267379
0.000478093
0.001874
0.000522291
0.000971679
0.000596519
0.000102147
0.000596681
-0.000407349
0.000430905
-0.000403031
0.000453065
-0.000177262
0.000173117
-0.00024894
-0.000266609
-0.000255493
-0.000348448
-0.000200326
2.11429e-05
0.000184494
-0.000204481
0.0100141
2.23746e-05
0.0100441
6.41333e-05
0.0100777
9.54582e-05
0.0101073
0.000115236
0.0101313
0.000126264
0.0101522
0.00013217
0.010173
0.000135611
0.0101949
0.000139729
0.0102179
0.000143733
0.0102407
0.000148757
0.0102631
0.000152555
0.0102842
0.000156337
0.0103045
0.000158834
0.0103236
0.000161033
0.0103423
0.000162706
0.0103601
0.000164005
0.0103775
0.000165558
0.0103942
0.000166399
0.0104101
0.000168035
0.0104254
0.00016846
0.0104396
0.000170116
0.0104533
0.000170144
0.0104656
0.000171789
0.0104775
0.000171506
0.0104879
0.000173113
0.0104977
0.000172689
0.010506
0.00017417
0.0105136
0.000173889
0.0105196
0.000175122
0.0105248
0.000175179
0.0105284
0.000176295
0.0105309
0.000176644
0.0105317
0.000178033
0.0105315
0.000178625
0.0105292
0.000180559
0.0105259
0.000181612
0.0105203
0.000184231
0.0105136
0.00018608
0.0105041
0.000189738
0.0104936
0.000192502
0.0104799
0.00019778
0.0104652
0.000201657
0.0104465
0.000208878
0.0104269
0.000214527
0.0104027
0.00022382
0.0103771
0.000232305
0.0103467
0.000243771
0.0103136
0.000256212
0.0102762
0.000270106
0.0102342
0.000287525
0.0101882
0.000304659
0.0101358
0.00032737
0.0100789
0.000349315
0.0100145
0.000377132
0.00994399
0.000405445
0.00986539
0.000438371
0.00977819
0.000473649
0.00968253
0.000511353
0.00957526
0.000553598
0.00945962
0.000593939
0.00932857
0.000641558
0.00918963
0.000679631
0.00902996
0.000727354
0.00885856
0.000754896
0.00864678
0.000791753
0.00840742
0.000807533
0.00811026
0.000845174
0.00777599
0.000850537
0.00736904
0.000897538
0.00692505
0.000922092
0.00643544
0.00101189
0.00596078
0.00107119
0.00537625
0.0011812
0.00462861
0.00117855
0.0038713
0.00121037
0.00292707
0.00111735
0.00161588
0.00104458
0.000287741
0.000979688
-0.000406533
0.000715417
0.000447775
-0.000669814
0.0100069
1.55085e-05
0.0100268
4.4227e-05
0.0100518
7.04291e-05
0.010077
9.00546e-05
0.0101002
0.000103005
0.0101223
0.000110158
0.0101431
0.000114794
0.0101642
0.000118599
0.0101863
0.000121608
0.0102095
0.000125612
0.0102332
0.00012886
0.0102569
0.00013261
0.0102805
0.000135204
0.0103038
0.000137789
0.010327
0.000139439
0.0103499
0.000141109
0.0103731
0.000142365
0.0103959
0.00014359
0.0104191
0.000144882
0.0104418
0.00014577
0.0104647
0.000147206
0.010487
0.00014779
0.0105095
0.000149343
0.0105313
0.000149644
0.0105531
0.000151376
0.0105744
0.000151389
0.0105951
0.000153413
0.0106158
0.000153277
0.0106353
0.000155531
0.010655
0.000155532
0.0106733
0.000157988
0.0106917
0.000158266
0.0107085
0.000161228
0.0107254
0.000161688
0.0107404
0.000165544
0.0107557
0.000166342
0.0107687
0.000171221
0.010782
0.000172816
0.0107928
0.000178911
0.0108038
0.000181553
0.0108121
0.000189403
0.0108206
0.000193178
0.0108261
0.000203428
0.0108319
0.000208711
0.0108339
0.000221824
0.0108368
0.00022935
0.0108349
0.00024571
0.0108346
0.000256453
0.0108284
0.00027636
0.0108243
0.000291573
0.0108136
0.000315391
0.0108049
0.000336094
0.0107894
0.000364837
0.0107754
0.000391113
0.0107541
0.000426767
0.0107347
0.000457761
0.0107062
0.000502144
0.0106808
0.000536765
0.0106439
0.000590453
0.0106107
0.000627195
0.0105635
0.000688686
0.0105174
0.000725708
0.0104537
0.000791081
0.0103809
0.000827674
0.0102789
0.000893806
0.0101541
0.000932353
0.0100019
0.000997298
0.00980665
0.00104584
0.00958822
0.00111596
0.00931825
0.00119206
0.00904855
0.00128159
0.00871827
0.00140147
0.00838361
0.00151586
0.00790325
0.00165891
0.00741607
0.00169756
0.00673467
0.00179875
0.00605834
0.00172091
0.00523369
0.00180434
0.00414671
0.0018024
0.0017655
0.00282898
0.0100043
1.12199e-05
0.0100166
3.18689e-05
0.010035
5.21257e-05
0.0100563
6.86575e-05
0.0100779
8.14043e-05
0.010099
8.91348e-05
0.0101192
9.45789e-05
0.0101397
9.80386e-05
0.0101606
0.000100758
0.0101826
0.000103601
0.010205
0.000106469
0.0102282
0.000109399
0.0102513
0.000112068
0.0102748
0.000114285
0.010298
0.000116269
0.0103214
0.000117692
0.0103447
0.000119141
0.0103681
0.00012014
0.0103915
0.000121472
0.0104151
0.000122241
0.0104386
0.0001237
0.010462
0.00012433
0.0104855
0.000125907
0.0105087
0.000126436
0.0105319
0.000128166
0.0105547
0.000128536
0.0105775
0.000130662
0.0105999
0.000130811
0.010622
0.000133477
0.0106439
0.000133598
0.0106652
0.000136713
0.0106863
0.000137193
0.0107067
0.000140763
0.0107267
0.000141732
0.0107462
0.000146053
0.0107649
0.000147662
0.0107832
0.000152886
0.0108004
0.000155621
0.0108175
0.000161797
0.010833
0.000166021
0.0108487
0.000173747
0.0108626
0.000179257
0.0108763
0.000189707
0.0108889
0.000196152
0.0109001
0.000210598
0.0109116
0.00021787
0.01092
0.000237358
0.0109305
0.00024591
0.0109359
0.000271005
0.0109455
0.000281959
0.010948
0.000312863
0.0109565
0.000327635
0.0109569
0.000364413
0.0109634
0.000384637
0.0109631
0.000427047
0.0109666
0.000454244
0.0109668
0.000501934
0.0109666
0.000536932
0.0109678
0.000589313
0.0109624
0.000632541
0.0109629
0.000688189
0.0109482
0.000740434
0.0109409
0.000798401
0.0109082
0.000860336
0.0108817
0.000920304
0.0108219
0.000992146
0.0107639
0.00105532
0.0106656
0.00114412
0.0105634
0.00121816
0.0104236
0.00133191
0.0102746
0.00143055
0.0100957
0.00158039
0.00989887
0.0017127
0.00968048
0.0018773
0.00937868
0.00199935
0.00903957
0.00213786
0.00855125
0.00220923
0.00799214
0.00236344
0.0073222
0.00247234
0.00257993
0.00650777
0.010003
8.17601e-06
0.0100118
2.30827e-05
0.0100256
3.83966e-05
0.0100432
5.10465e-05
0.0100624
6.21602e-05
0.0100825
6.90629e-05
0.0101023
7.47521e-05
0.0101226
7.77993e-05
0.0101426
8.06873e-05
0.0101638
8.24424e-05
0.0101853
8.49892e-05
0.0102078
8.68175e-05
0.0102303
8.96227e-05
0.0102535
9.1027e-05
0.0102763
9.34739e-05
0.0102998
9.42643e-05
0.0103227
9.62226e-05
0.0103462
9.66392e-05
0.0103693
9.83717e-05
0.0103929
9.86346e-05
0.0104161
0.000100467
0.0104397
0.000100726
0.010463
0.000102674
0.0104864
0.000103007
0.0105095
0.000105048
0.0105326
0.000105431
0.0105555
0.000107821
0.0105782
0.000108108
0.0106005
0.00011109
0.0106227
0.000111425
0.0106446
0.00011486
0.0106659
0.000115839
0.0106873
0.000119407
0.0107075
0.000121474
0.0107283
0.000125314
0.0107474
0.000128531
0.0107672
0.000133099
0.0107853
0.000137504
0.0108039
0.000143208
0.0108209
0.000148983
0.0108383
0.000156429
0.0108541
0.000163435
0.0108701
0.0001737
0.0108846
0.00018161
0.0108993
0.000195933
0.0109126
0.000204589
0.010926
0.000223948
0.0109379
0.000233966
0.0109505
0.000258398
0.0109608
0.000271661
0.0109734
0.000300294
0.0109819
0.000319094
0.0109951
0.000351294
0.011002
0.00037766
0.0110165
0.0004126
0.0110219
0.000448857
0.0110385
0.000485304
0.0110424
0.000533016
0.0110605
0.000571218
0.0110634
0.000629678
0.0110797
0.000671869
0.0110798
0.000740301
0.0110893
0.000788975
0.0110839
0.000865658
0.011079
0.000925211
0.0110654
0.00100575
0.0110332
0.00108757
0.0110081
0.00116924
0.01094
0.00128626
0.0108984
0.00137344
0.0107954
0.00153354
0.0107378
0.00163802
0.0106103
0.00184025
0.0105299
0.00195762
0.0103502
0.00217909
0.0101835
0.00230457
0.00988068
0.00251205
0.0095743
0.00266983
0.00923226
0.00281438
0.00301314
0.00879904
0.0100024
5.80209e-06
0.0100093
1.61747e-05
0.0100204
2.72913e-05
0.0100352
3.62134e-05
0.0100523
4.50351e-05
0.0100711
5.03448e-05
0.0100903
5.5562e-05
0.0101102
5.78792e-05
0.01013
6.0865e-05
0.0101507
6.17079e-05
0.0101716
6.41023e-05
0.0101936
6.48034e-05
0.0102156
6.76552e-05
0.0102385
6.8171e-05
0.010261
7.09181e-05
0.0102843
7.09911e-05
0.0103071
7.34205e-05
0.0103306
7.31745e-05
0.0103535
7.54288e-05
0.0103771
7.49969e-05
0.0104001
7.74868e-05
0.0104239
7.69528e-05
0.0104468
7.98016e-05
0.0104705
7.92151e-05
0.0104932
8.23846e-05
0.0105168
8.18044e-05
0.0105392
8.54634e-05
0.0105625
8.47661e-05
0.0105844
8.91965e-05
0.0106074
8.84289e-05
0.0106287
9.36234e-05
0.0106512
9.32898e-05
0.0106717
9.8924e-05
0.0106936
9.95347e-05
0.0107133
0.000105688
0.0107345
0.000107278
0.0107531
0.000114502
0.0107736
0.000116977
0.0107912
0.000125673
0.0108107
0.000129456
0.0108275
0.000139656
0.0108455
0.000145423
0.010862
0.000157221
0.010878
0.000165549
0.0108946
0.000179395
0.0109086
0.0001906
0.0109253
0.000207184
0.0109374
0.000221884
0.0109546
0.000241197
0.0109648
0.000261433
0.0109831
0.000282038
0.0109916
0.000310596
0.011011
0.000331837
0.0110191
0.00036958
0.0110389
0.000392819
0.0110484
0.000439395
0.0110677
0.000465924
0.0110794
0.000521399
0.0110975
0.000553126
0.0111115
0.000615592
0.0111252
0.000658173
0.0111425
0.000723065
0.0111475
0.000783906
0.0111673
0.000845889
0.0111599
0.000932652
0.0111761
0.000989525
0.011154
0.00110965
0.0111586
0.00116465
0.0111209
0.00132398
0.01111
0.00138434
0.0110568
0.00158672
0.011032
0.00166283
0.0109731
0.00189915
0.0109193
0.00201136
0.0108425
0.00225594
0.0107284
0.00241862
0.0106028
0.00263768
0.0104255
0.00284719
0.0102329
0.00300694
0.00324573
0.0100003
0.0100019
3.86979e-06
0.0100079
1.02072e-05
0.0100174
1.77518e-05
0.0100304
2.32051e-05
0.010046
2.9459e-05
0.0100635
3.29078e-05
0.0100821
3.69385e-05
0.0101015
3.84887e-05
0.0101214
4.09832e-05
0.0101417
4.1315e-05
0.0101625
4.33636e-05
0.0101839
4.33462e-05
0.0102057
4.59493e-05
0.0102281
4.5673e-05
0.0102505
4.85578e-05
0.0102737
4.78312e-05
0.0102964
5.07215e-05
0.0103199
4.96738e-05
0.0103427
5.25593e-05
0.0103664
5.13443e-05
0.0103893
5.45281e-05
0.0104131
5.32249e-05
0.010436
5.68672e-05
0.0104598
5.54629e-05
0.0104825
5.96344e-05
0.0105062
5.81169e-05
0.0105286
6.30442e-05
0.0105522
6.12248e-05
0.0105741
6.72667e-05
0.0105974
6.50982e-05
0.0106187
7.23517e-05
0.0106417
7.02725e-05
0.0106623
7.83328e-05
0.0106847
7.71056e-05
0.0107047
8.56784e-05
0.0107263
8.56746e-05
0.0107457
9.51009e-05
0.0107665
9.6222e-05
0.0107851
0.000107056
0.010805
0.000109539
0.010823
0.000121736
0.0108417
0.000126685
0.0108594
0.00013948
0.0108765
0.000148489
0.0108945
0.000161361
0.0109099
0.000175188
0.010928
0.000189122
0.0109428
0.000207106
0.0109601
0.000223895
0.0109753
0.000246169
0.0109918
0.000265551
0.0110078
0.000294662
0.0110243
0.000315314
0.011041
0.000352895
0.0110578
0.000375972
0.0110762
0.000420985
0.0110929
0.000449287
0.0111135
0.000500759
0.0111296
0.000537021
0.0111517
0.000593509
0.011167
0.000642849
0.0111892
0.000700843
0.0112034
0.000769703
0.011223
0.000826383
0.0112342
0.000921456
0.0112476
0.000976079
0.0112525
0.00110477
0.0112563
0.00116081
0.0112549
0.00132543
0.0112436
0.00139557
0.0112387
0.00159165
0.0112119
0.00168961
0.0111987
0.00191238
0.0111565
0.0020536
0.011125
0.00228741
0.011058
0.00248563
0.0109916
0.00270409
0.010899
0.0029398
0.0107556
0.0031503
0.00337827
0.0106231
0.0100018
2.08943e-06
0.0100072
4.80525e-06
0.0100159
9.0532e-06
0.0100278
1.1329e-05
0.0100423
1.48806e-05
0.0100589
1.63343e-05
0.010077
1.88498e-05
0.010096
1.94724e-05
0.0101158
2.11522e-05
0.0101361
2.10678e-05
0.0101568
2.2649e-05
0.0101779
2.22084e-05
0.0101995
2.43443e-05
0.0102217
2.35068e-05
0.0102441
2.61943e-05
0.010267
2.48741e-05
0.0102898
2.79449e-05
0.0103132
2.62375e-05
0.0103362
2.96026e-05
0.0103598
2.77263e-05
0.0103829
3.14539e-05
0.0104065
2.96042e-05
0.0104297
3.36526e-05
0.0104532
3.19773e-05
0.0104765
3.63339e-05
0.0104997
3.49042e-05
0.010523
3.97436e-05
0.0105459
3.83872e-05
0.010569
4.41128e-05
0.0105914
4.26769e-05
0.0106142
4.95622e-05
0.0106363
4.82403e-05
0.0106585
5.60798e-05
0.01068
5.55835e-05
0.0107018
6.39143e-05
0.0107226
6.49011e-05
0.0107439
7.37647e-05
0.0107639
7.62219e-05
0.0107845
8.6424e-05
0.0108041
8.9969e-05
0.0108237
0.00010215
0.010843
0.000107375
0.0108617
0.000120766
0.0108805
0.000129737
0.0108989
0.000142905
0.0109168
0.00015729
0.0109353
0.000170613
0.0109529
0.000189562
0.0109709
0.000205852
0.0109895
0.000227625
0.0110065
0.000248565
0.0110268
0.000274343
0.0110433
0.000298773
0.0110652
0.000331005
0.0110822
0.000358952
0.0111058
0.00039742
0.0111235
0.000431538
0.0111486
0.000475725
0.0111678
0.000517817
0.011193
0.000568286
0.0112143
0.000621541
0.0112392
0.000675932
0.0112613
0.000747656
0.0112847
0.000802942
0.0113067
0.000899471
0.0113244
0.000958397
0.0113469
0.00108225
0.0113555
0.00115216
0.0113759
0.00130508
0.0113758
0.00139564
0.0113911
0.00157641
0.0113781
0.00170259
0.0113868
0.0019037
0.0113599
0.00208048
0.0113475
0.00229976
0.0113158
0.00251736
0.0112607
0.00275925
0.0112056
0.00299482
0.0110947
0.00326118
0.00350261
0.0109704
0.0100018
3.22958e-07
0.0100069
-3.27788e-07
0.0100152
7.93998e-07
0.0100267
-1.7953e-07
0.0100406
9.67809e-07
0.0100569
9.58165e-09
0.0100745
1.26924e-06
0.0100935
4.60831e-07
0.0101131
1.52513e-06
0.0101334
7.78406e-07
0.0101541
1.95227e-06
0.0101751
1.22569e-06
0.0101968
2.63965e-06
0.0102186
1.69068e-06
0.0102413
3.53019e-06
0.0102638
2.30442e-06
0.010287
4.75911e-06
0.0103102
3.09389e-06
0.0103335
6.30896e-06
0.010357
4.23691e-06
0.0103802
8.17544e-06
0.0104039
5.98851e-06
0.0104273
1.02502e-05
0.0104507
8.51523e-06
0.0104744
1.26782e-05
0.0104974
1.18535e-05
0.0105213
1.58254e-05
0.0105439
1.58475e-05
0.0105678
2.01628e-05
0.01059
2.05078e-05
0.0106136
2.60082e-05
0.0106356
2.61798e-05
0.0106584
3.32877e-05
0.0106804
3.35916e-05
0.0107024
4.1873e-05
0.010724
4.33164e-05
0.0107457
5.21282e-05
0.0107665
5.53878e-05
0.0107878
6.51379e-05
0.0108081
6.96226e-05
0.0108285
8.17308e-05
0.010849
8.69289e-05
0.0108684
0.000101382
0.0108888
0.000109309
0.0109079
0.000123766
0.0109276
0.000137626
0.0109476
0.000150602
0.0109662
0.000170982
0.0109873
0.000184756
0.0110058
0.000209125
0.0110272
0.000227122
0.0110472
0.000254377
0.0110684
0.000277537
0.0110909
0.000308541
0.011112
0.000337908
0.0111376
0.000371802
0.0111582
0.000410859
0.0111878
0.000446141
0.0112081
0.000497532
0.0112411
0.000535324
0.0112631
0.00059949
0.0112958
0.000643251
0.0113229
0.00072053
0.0113519
0.000773939
0.0113837
0.000867662
0.011409
0.000933123
0.0114436
0.00104772
0.011462
0.00113373
0.0115018
0.00126529
0.0115079
0.00138948
0.0115479
0.00153641
0.011548
0.00170253
0.0115703
0.00188136
0.0115681
0.0020827
0.0115674
0.00230053
0.0115497
0.00253499
0.011518
0.00279097
0.0114596
0.00305329
0.011384
0.00333677
0.00362712
0.0112595
0.0100019
-1.55939e-06
0.0100068
-5.23209e-06
0.0100152
-7.65315e-06
0.0100266
-1.15432e-05
0.0100407
-1.31096e-05
0.0100568
-1.61458e-05
0.0100746
-1.64543e-05
0.0100935
-1.84963e-05
0.0101132
-1.81862e-05
0.0101335
-1.95425e-05
0.0101542
-1.8742e-05
0.0101753
-1.98572e-05
0.0101971
-1.90987e-05
0.0102189
-2.01163e-05
0.0102418
-1.9374e-05
0.0102641
-1.99849e-05
0.0102878
-1.90268e-05
0.0103104
-1.94342e-05
0.0103346
-1.78709e-05
0.0103573
-1.84933e-05
0.0103815
-1.60267e-05
0.0104045
-1.70542e-05
0.0104286
-1.3806e-05
0.0104519
-1.48182e-05
0.0104758
-1.12043e-05
0.0104992
-1.1584e-05
0.010523
-7.95891e-06
0.0105463
-7.41892e-06
0.01057
-3.55569e-06
0.010593
-2.45539e-06
0.0106165
2.50729e-06
0.0106392
3.48466e-06
0.0106623
1.01939e-05
0.0106846
1.12106e-05
0.0107075
1.90435e-05
0.0107291
2.17038e-05
0.010752
2.91724e-05
0.0107726
3.48563e-05
0.0107958
4.19288e-05
0.0108154
4.99873e-05
0.0108384
5.86984e-05
0.010858
6.74244e-05
0.0108802
7.91337e-05
0.0109002
8.93123e-05
0.0109216
0.000102368
0.0109423
0.000116949
0.0109632
0.000129708
0.0109847
0.000149464
0.0110054
0.000164032
0.0110282
0.000186328
0.011049
0.000206356
0.0110734
0.000229925
0.011095
0.000255958
0.011121
0.000282515
0.0111443
0.000314608
0.0111721
0.000344004
0.0111976
0.000385388
0.0112273
0.00041642
0.0112561
0.000468742
0.0112872
0.000504205
0.0113202
0.000566565
0.0113526
0.000610784
0.0113901
0.000683048
0.0114221
0.00074195
0.011467
0.000822779
0.0114955
0.00090457
0.0115462
0.000997059
0.0115769
0.001103
0.0116223
0.00121985
0.01166
0.00135178
0.0116984
0.00149808
0.0117323
0.00166864
0.0117635
0.00185014
0.0117871
0.00205904
0.0117986
0.00228905
0.0117995
0.00253407
0.0117817
0.00280879
0.0117393
0.0030957
0.0116635
0.00341256
0.00372619
0.0115644
0.0100021
-3.70285e-06
0.010007
-1.00934e-05
0.0100161
-1.67947e-05
0.0100277
-2.30977e-05
0.0100425
-2.7942e-05
0.0100589
-3.24653e-05
0.0100771
-3.47063e-05
0.0100961
-3.75357e-05
0.0101161
-3.81022e-05
0.0101365
-3.99504e-05
0.0101572
-3.94362e-05
0.0101786
-4.1271e-05
0.0102002
-4.07701e-05
0.0102225
-4.24187e-05
0.0102453
-4.2119e-05
0.0102681
-4.27535e-05
0.0102917
-4.26136e-05
0.0103146
-4.23774e-05
0.0103386
-4.18783e-05
0.0103617
-4.1611e-05
0.0103858
-4.01072e-05
0.0104093
-4.05384e-05
0.0104332
-3.77227e-05
0.0104571
-3.86851e-05
0.0104808
-3.49778e-05
0.0105048
-3.55187e-05
0.0105287
-3.18727e-05
0.0105522
-3.09474e-05
0.0105764
-2.77877e-05
0.0105994
-2.54149e-05
0.0106237
-2.17439e-05
0.0106465
-1.93092e-05
0.0106701
-1.34085e-05
0.0106931
-1.18372e-05
0.010716
-3.82457e-06
0.0107389
-1.17645e-06
0.0107616
6.4551e-06
0.0107836
1.28314e-05
0.0108068
1.87339e-05
0.0108278
2.90054e-05
0.0108511
3.53543e-05
0.0108722
4.63627e-05
0.0108945
5.678e-05
0.0109168
6.70589e-05
0.010938
8.11819e-05
0.0109615
9.34619e-05
0.0109821
0.000109099
0.0110069
0.000124644
0.0110271
0.000143792
0.011054
0.000159456
0.011074
0.000186306
0.011103
0.000201019
0.0111247
0.000234189
0.0111537
0.000253525
0.0111806
0.0002877
0.0112081
0.000316562
0.0112411
0.000352367
0.0112691
0.00038839
0.0113061
0.000431747
0.0113376
0.000472675
0.0113781
0.000526074
0.0114136
0.000575316
0.0114581
0.000638581
0.0114993
0.000700727
0.0115451
0.000776973
0.0115956
0.000854101
0.0116425
0.000950121
0.0116984
0.00104715
0.0117507
0.00116755
0.0118089
0.00129355
0.0118615
0.00144544
0.01192
0.00161013
0.0119707
0.00179943
0.0120135
0.00201633
0.0120544
0.0022481
0.0120688
0.00251973
0.0120752
0.00280233
0.0120447
0.00312626
0.0119951
0.00346208
0.00383798
0.0118834
0.0100022
-5.94613e-06
0.0100077
-1.55003e-05
0.0100178
-2.6895e-05
0.0100303
-3.56964e-05
0.0100463
-4.39276e-05
0.0100633
-4.94547e-05
0.0100824
-5.38196e-05
0.0101016
-5.66763e-05
0.010122
-5.85041e-05
0.0101422
-6.01843e-05
0.0101634
-6.0586e-05
0.0101849
-6.27718e-05
0.0102069
-6.28448e-05
0.0102296
-6.50537e-05
0.0102524
-6.49369e-05
0.0102756
-6.6006e-05
0.010299
-6.59736e-05
0.0103225
-6.58802e-05
0.0103463
-6.56235e-05
0.0103699
-6.52167e-05
0.0103939
-6.41713e-05
0.0104177
-6.42779e-05
0.0104419
-6.19442e-05
0.0104658
-6.26266e-05
0.0104901
-5.92241e-05
0.0105141
-5.94985e-05
0.0105385
-5.63346e-05
0.0105621
-5.44852e-05
0.010587
-5.27292e-05
0.0106099
-4.83174e-05
0.010635
-4.68005e-05
0.0106579
-4.22441e-05
0.0106819
-3.74669e-05
0.010706
-3.59039e-05
0.0107281
-2.59162e-05
0.0107536
-2.66294e-05
0.0107743
-1.43374e-05
0.0107998
-1.26014e-05
0.0108209
-2.38742e-06
0.0108453
4.64677e-06
0.0108673
1.32705e-05
0.0108907
2.29909e-05
0.0109132
3.43363e-05
0.0109368
4.34625e-05
0.0109595
5.84422e-05
0.0109827
7.02112e-05
0.0110075
8.43899e-05
0.0110293
0.000102806
0.0110571
0.000116017
0.0110781
0.000138389
0.011108
0.000156458
0.011131
0.000178028
0.0111613
0.000203864
0.0111878
0.000226975
0.0112197
0.000255846
0.0112485
0.000287731
0.0112852
0.000315729
0.0113154
0.000358179
0.0113571
0.000390039
0.0113921
0.000437615
0.0114359
0.000482287
0.0114795
0.000531708
0.0115264
0.000591715
0.0115759
0.000651209
0.0116327
0.000720244
0.011685
0.000801803
0.0117521
0.000883009
0.0118129
0.000986269
0.0118866
0.00109389
0.0119535
0.00122665
0.0120381
0.00136089
0.0121066
0.00154156
0.0121886
0.00171747
0.0122591
0.00194582
0.0123222
0.002185
0.0123701
0.00247178
0.0124002
0.00277229
0.0123971
0.00312938
0.0123607
0.00349846
0.00392206
0.0122766
0.0100024
-8.333e-06
0.0100091
-2.21873e-05
0.0100206
-3.83851e-05
0.010035
-5.00879e-05
0.0100526
-6.16183e-05
0.0100707
-6.75185e-05
0.0100909
-7.39806e-05
0.0101101
-7.59342e-05
0.010131
-7.94227e-05
0.0101512
-8.03515e-05
0.010173
-8.24109e-05
0.0101948
-8.44962e-05
0.0102176
-8.56732e-05
0.0102403
-8.77377e-05
0.0102638
-8.84487e-05
0.0102869
-8.90986e-05
0.0103108
-8.98845e-05
0.0103342
-8.92483e-05
0.0103583
-8.97589e-05
0.010382
-8.89358e-05
0.0104063
-8.84117e-05
0.0104305
-8.85038e-05
0.0104545
-8.592e-05
0.0104796
-8.77222e-05
0.0105028
-8.24825e-05
0.0105288
-8.54504e-05
0.0105517
-7.92513e-05
0.0105774
-8.01915e-05
0.0106013
-7.66073e-05
0.0106253
-7.23688e-05
0.0106509
-7.23825e-05
0.0106733
-6.46561e-05
0.0106995
-6.36684e-05
0.010722
-5.83675e-05
0.0107468
-5.07435e-05
0.0107709
-5.07192e-05
0.0107937
-3.71691e-05
0.010819
-3.78943e-05
0.0108412
-2.45473e-05
0.010866
-2.02088e-05
0.0108892
-9.87259e-06
0.0109129
-7.75657e-07
0.0109372
1.00922e-05
0.0109606
2.00277e-05
0.0109855
3.35567e-05
0.0110091
4.66361e-05
0.0110355
5.80138e-05
0.0110583
7.9921e-05
0.0110878
8.65712e-05
0.0111099
0.000116273
0.0111417
0.000124662
0.0111666
0.000153128
0.0111973
0.00017312
0.0112291
0.000195269
0.0112584
0.000226544
0.0112956
0.000250444
0.0113285
0.000282828
0.0113676
0.00031915
0.0114082
0.000349399
0.0114494
0.000396402
0.0114969
0.000434775
0.0115452
0.000483413
0.011597
0.000539909
0.0116559
0.000592353
0.0117152
0.000660977
0.0117817
0.000735231
0.0118558
0.000808937
0.0119307
0.000911415
0.0120155
0.00100906
0.0121123
0.00112982
0.0121977
0.00127554
0.012312
0.00142728
0.012406
0.00162341
0.0125183
0.00183349
0.0126108
0.00209251
0.0127001
0.00238253
0.0127586
0.00271379
0.0128049
0.00308311
0.0127776
0.00352571
0.00396054
0.0127391
0.0100028
-1.109e-05
0.0100119
-3.12878e-05
0.0100255
-5.20375e-05
0.010043
-6.75679e-05
0.0100625
-8.11531e-05
0.0100823
-8.72516e-05
0.010103
-9.46849e-05
0.0101227
-9.56408e-05
0.0101438
-0.000100563
0.0101645
-0.000101039
0.0101869
-0.00010486
0.0102093
-0.000106866
0.0102327
-0.000109091
0.0102558
-0.000110777
0.0102798
-0.000112515
0.0103029
-0.00011217
0.0103274
-0.000114334
0.0103507
-0.00011256
0.0103753
-0.000114355
0.0103991
-0.000112809
0.0104237
-0.000113012
0.0104483
-0.000113032
0.0104725
-0.000110167
0.0104981
-0.000113285
0.0105214
-0.000105783
0.0105481
-0.000112219
0.0105708
-0.000101895
0.0105976
-0.000106954
0.0106213
-0.000100309
0.010646
-9.70648e-05
0.0106723
-9.87206e-05
0.0106941
-8.64685e-05
0.0107226
-9.21519e-05
0.0107431
-7.88865e-05
0.0107713
-7.89069e-05
0.0107932
-7.26201e-05
0.0108188
-6.28473e-05
0.0108434
-6.2405e-05
0.0108664
-4.76157e-05
0.0108931
-4.69313e-05
0.0109144
-3.11646e-05
0.0109428
-2.91545e-05
0.010963
-1.00748e-05
0.0109931
-1.0072e-05
0.011012
1.46104e-05
0.0110451
1.35951e-05
0.0110624
4.07351e-05
0.0110981
4.41331e-05
0.0111164
6.83581e-05
0.0111516
8.10448e-05
0.0111752
0.000101079
0.0112083
0.000119964
0.0112369
0.000144513
0.0112721
0.000160073
0.0113027
0.000195974
0.0113429
0.000210232
0.0113776
0.000248128
0.0114198
0.000276915
0.0114642
0.000305037
0.0115072
0.000353456
0.0115613
0.00038062
0.0116115
0.000433237
0.0116702
0.000481157
0.0117359
0.000526692
0.0117981
0.000598801
0.0118811
0.000652169
0.0119535
0.000736618
0.0120509
0.000814005
0.0121452
0.000914687
0.0122533
0.00102175
0.0123765
0.0011524
0.0124981
0.00130559
0.0126419
0.00147964
0.0127771
0.0016983
0.0129203
0.0019493
0.01306
0.00224286
0.0131579
0.00261589
0.013261
0.00297996
0.0132859
0.00350081
0.0039986
0.0132479
0.0100039
-1.49418e-05
0.0100168
-4.42762e-05
0.0100347
-6.98567e-05
0.0100564
-8.93346e-05
0.010078
-0.000102743
0.0100991
-0.000108352
0.01012
-0.00011557
0.0101402
-0.00011581
0.010162
-0.000122422
0.0101836
-0.000122605
0.010207
-0.000128297
0.01023
-0.000129812
0.0102542
-0.000133333
0.0102774
-0.000133991
0.0103021
-0.000137223
0.010325
-0.000134981
0.0103504
-0.000139747
0.0103729
-0.000135139
0.0103992
-0.000140574
0.0104216
-0.000135276
0.0104486
-0.000140028
0.010471
-0.00013536
0.0104983
-0.000137478
0.0105213
-0.000136254
0.0105474
-0.000131965
0.0105724
-0.000137207
0.0105964
-0.000125872
0.0106234
-0.00013398
0.0106462
-0.000123048
0.0106733
-0.00012416
0.010697
-0.000122433
0.0107221
-0.000111565
0.010748
-0.000118111
0.0107707
-0.000101543
0.0107985
-0.000106674
0.0108198
-9.39254e-05
0.0108478
-9.09251e-05
0.0108696
-8.41484e-05
0.0108963
-7.43711e-05
0.01092
-7.05795e-05
0.0109446
-5.57323e-05
0.0109704
-5.50503e-05
0.010994
-3.36289e-05
0.0110207
-3.67319e-05
0.0110452
-9.96319e-06
0.0110722
-1.33434e-05
0.011098
1.48866e-05
0.0111257
1.65021e-05
0.0111542
3.97641e-05
0.0111802
5.50907e-05
0.011216
6.53056e-05
0.0112384
9.75543e-05
0.0112805
0.000102378
0.0113063
0.000134246
0.0113471
0.000155202
0.0113843
0.000173082
0.0114238
0.000208597
0.011467
0.000233746
0.0115181
0.000253915
0.0115574
0.000314098
0.0116252
0.000312878
0.0116709
0.000387485
0.011742
0.000410091
0.0118072
0.000461503
0.0118882
0.000517812
0.0119606
0.000579773
0.012065
0.000632194
0.0121506
0.000728364
0.012279
0.000786348
0.0123869
0.000913849
0.0125398
0.000999458
0.0126922
0.0011532
0.012859
0.00131283
0.0130518
0.00150555
0.0132434
0.0017577
0.0134333
0.00205299
0.0136189
0.00243026
0.0137524
0.00284641
0.0139009
0.00335238
0.00401846
0.013881
0.0100068
-2.17526e-05
0.0100273
-6.47339e-05
0.0100517
-9.42775e-05
0.0100776
-0.000115251
0.0101004
-0.000125547
0.0101232
-0.000131162
0.0101437
-0.000136082
0.0101653
-0.000137412
0.0101875
-0.00014457
0.0102109
-0.000146069
0.0102349
-0.000152255
0.0102591
-0.000154016
0.010283
-0.000157269
0.0103071
-0.000158002
0.0103307
-0.000160883
0.0103546
-0.00015887
0.0103784
-0.000163563
0.0104025
-0.000159177
0.0104265
-0.000164602
0.0104507
-0.000159457
0.0104749
-0.000164251
0.0104989
-0.00015933
0.0105232
-0.000161829
0.0105471
-0.000160171
0.0105707
-0.00015554
0.0105958
-0.000162321
0.0106171
-0.000147118
0.0106445
-0.000161403
0.0106629
-0.000141479
0.0106922
-0.000153405
0.010709
-0.000139284
0.0107382
-0.000140788
0.0107556
-0.000135491
0.0107827
-0.000128576
0.0108026
-0.000126663
0.0108259
-0.000117162
0.0108494
-0.000114479
0.0108692
-0.000103901
0.0108949