/*--------------------------------*- C++ -*----------------------------------*\
| =========                 |                                                 |
| \\      /  F ield         | OpenFOAM: The Open Source CFD Toolbox           |
|  \\    /   O peration     | Version:  2306                                  |
|   \\  /    A nd           | Website:  www.openfoam.com                      |
|    \\/     M anipulation  |                                                 |
\*---------------------------------------------------------------------------*/
FoamFile
{
    version     2.0;
    format      ascii;
    arch        "LSB;label=32;scalar=64";
    class       volVectorField;
    location    "0.2";
    object      U;
}
// * * * * * * * * * * * * * * * * * * * * * * * * * * * * * * * * * * * * * //

dimensions      [0 1 -1 0 0 0 0];

internalField   nonuniform List<vector> 
4400
(
(9.90178 0.0455117 0)
(9.80628 0.09872 0)
(9.70007 0.120961 0)
(9.57016 0.125795 0)
(9.41818 0.124475 0)
(9.25218 0.123466 0)
(9.08062 0.124129 0)
(8.90822 0.125697 0)
(8.73725 0.126971 0)
(8.56781 0.127413 0)
(8.40008 0.126873 0)
(8.2334 0.125539 0)
(8.0679 0.123778 0)
(7.90334 0.121723 0)
(7.73989 0.119675 0)
(7.57774 0.11752 0)
(7.41686 0.115447 0)
(7.25774 0.113225 0)
(7.09997 0.111094 0)
(6.94434 0.108744 0)
(6.79012 0.106476 0)
(6.63831 0.104011 0)
(6.48794 0.101643 0)
(6.34019 0.0991005 0)
(6.19394 0.0966521 0)
(6.05043 0.0941213 0)
(5.90852 0.0916117 0)
(5.76937 0.0891091 0)
(5.63194 0.0866345 0)
(5.49715 0.084204 0)
(5.36429 0.0817711 0)
(5.23383 0.0794766 0)
(5.10542 0.0771923 0)
(4.97908 0.0750376 0)
(4.85479 0.0728896 0)
(4.73219 0.0709854 0)
(4.61148 0.0690928 0)
(4.49195 0.0675093 0)
(4.37403 0.065969 0)
(4.2566 0.0648852 0)
(4.14034 0.0638823 0)
(4.02373 0.0634451 0)
(3.90763 0.0631172 0)
(3.79023 0.0634983 0)
(3.67243 0.0639987 0)
(3.55219 0.0653179 0)
(3.43025 0.0667569 0)
(3.30458 0.0691585 0)
(3.17553 0.0716899 0)
(3.0413 0.0753013 0)
(2.90151 0.0790331 0)
(2.75505 0.0839553 0)
(2.60036 0.0889693 0)
(2.43748 0.0952408 0)
(2.26334 0.10142 0)
(2.07953 0.10879 0)
(1.8814 0.115715 0)
(1.67239 0.123425 0)
(1.44666 0.129987 0)
(1.20963 0.136275 0)
(0.955041 0.140213 0)
(0.690537 0.141866 0)
(0.408773 0.138459 0)
(0.125389 0.117872 0)
(-0.139946 0.0570004 0)
(-0.392051 -0.0365433 0)
(-0.571106 -0.137906 0)
(-0.682532 -0.256027 0)
(-0.674077 -0.391843 0)
(-0.589961 -0.550538 0)
(-0.344512 -0.687603 0)
(-0.0525819 -0.777054 0)
(0.234563 -0.602765 0)
(0.457663 -0.17725 0)
(0.445458 0.720547 0)
(-0.472214 0.900537 0)
(-0.288858 0.0999055 0)
(0.154997 -0.0577537 0)
(0.365962 -0.121497 0)
(0.0764309 -0.233278 0)
(10.0002 0.0612092 0)
(10.0319 0.137457 0)
(10.0696 0.173601 0)
(10.1049 0.184979 0)
(10.1326 0.186089 0)
(10.15 0.186325 0)
(10.159 0.18819 0)
(10.1609 0.192049 0)
(10.1592 0.19585 0)
(10.1538 0.199143 0)
(10.1467 0.201109 0)
(10.1369 0.201985 0)
(10.125 0.202191 0)
(10.1109 0.201748 0)
(10.0938 0.201393 0)
(10.075 0.200623 0)
(10.0526 0.200166 0)
(10.0295 0.199275 0)
(10.0024 0.198659 0)
(9.97532 0.197595 0)
(9.94388 0.196683 0)
(9.91311 0.195416 0)
(9.87772 0.194239 0)
(9.84339 0.192786 0)
(9.80445 0.191403 0)
(9.76654 0.189814 0)
(9.72441 0.188279 0)
(9.68287 0.186625 0)
(9.63786 0.18498 0)
(9.59263 0.183329 0)
(9.54485 0.181663 0)
(9.49605 0.180023 0)
(9.44542 0.178501 0)
(9.39296 0.176933 0)
(9.33938 0.175634 0)
(9.28302 0.174304 0)
(9.22637 0.173327 0)
(9.16561 0.172454 0)
(9.10562 0.172002 0)
(9.03979 0.171722 0)
(8.97591 0.172097 0)
(8.90409 0.172654 0)
(8.83547 0.174169 0)
(8.75653 0.175916 0)
(8.682 0.178905 0)
(8.59451 0.18224 0)
(8.51239 0.187168 0)
(8.41446 0.192437 0)
(8.32268 0.19979 0)
(8.21176 0.207392 0)
(8.10785 0.217745 0)
(7.98049 0.22799 0)
(7.86156 0.241891 0)
(7.71343 0.255101 0)
(7.576 0.272883 0)
(7.40189 0.289353 0)
(7.24167 0.310793 0)
(7.03592 0.330447 0)
(6.84772 0.354681 0)
(6.60455 0.376557 0)
(6.38269 0.401337 0)
(6.09661 0.422695 0)
(5.83569 0.442724 0)
(5.50163 0.456572 0)
(5.20136 0.458539 0)
(4.83579 0.450403 0)
(4.48858 0.415741 0)
(4.06013 0.378807 0)
(3.61815 0.311474 0)
(3.05677 0.27434 0)
(2.39157 0.199015 0)
(1.47744 0.251504 0)
(0.40733 0.119221 0)
(-0.238129 -0.000805714 0)
(-0.541477 0.109989 0)
(-0.300595 -0.198806 0)
(-0.0326343 -0.876191 0)
(-0.416043 -0.735051 0)
(-0.137131 0.263293 0)
(-0.251757 0.629103 0)
(10.0001 0.0267922 0)
(10.0167 0.0697461 0)
(10.0428 0.0998867 0)
(10.0746 0.117535 0)
(10.1084 0.126744 0)
(10.1393 0.131992 0)
(10.1673 0.135757 0)
(10.1909 0.140511 0)
(10.2129 0.145182 0)
(10.233 0.150505 0)
(10.2533 0.154824 0)
(10.2732 0.158732 0)
(10.2932 0.161711 0)
(10.3132 0.164044 0)
(10.3321 0.166213 0)
(10.3515 0.167656 0)
(10.3684 0.169662 0)
(10.3869 0.170587 0)
(10.4015 0.172643 0)
(10.4191 0.173077 0)
(10.4314 0.175112 0)
(10.4479 0.175081 0)
(10.4579 0.177001 0)
(10.4732 0.176656 0)
(10.4809 0.178345 0)
(10.4945 0.177914 0)
(10.5001 0.179258 0)
(10.5115 0.179009 0)
(10.5148 0.17992 0)
(10.524 0.180007 0)
(10.5246 0.180612 0)
(10.5316 0.180991 0)
(10.5292 0.181593 0)
(10.5338 0.182279 0)
(10.5281 0.183105 0)
(10.5299 0.184286 0)
(10.5208 0.18547 0)
(10.5194 0.187479 0)
(10.5066 0.189274 0)
(10.5014 0.192321 0)
(10.4847 0.195068 0)
(10.4749 0.199631 0)
(10.4543 0.203531 0)
(10.4389 0.210346 0)
(10.4138 0.215646 0)
(10.392 0.225386 0)
(10.3613 0.232782 0)
(10.3327 0.245769 0)
(10.2943 0.256246 0)
(10.2592 0.272863 0)
(10.2099 0.287396 0)
(10.1686 0.308209 0)
(10.1046 0.327484 0)
(10.057 0.353334 0)
(9.97446 0.377726 0)
(9.91968 0.40941 0)
(9.81393 0.438957 0)
(9.75121 0.476317 0)
(9.61593 0.510942 0)
(9.54435 0.552106 0)
(9.3717 0.590226 0)
(9.28878 0.630578 0)
(9.06962 0.667211 0)
(8.96883 0.697015 0)
(8.69188 0.722577 0)
(8.56172 0.727231 0)
(8.20629 0.73419 0)
(8.01349 0.712154 0)
(7.55887 0.724323 0)
(7.26747 0.715169 0)
(6.69508 0.795151 0)
(6.2719 0.852247 0)
(5.57339 1.01323 0)
(5.02042 0.928028 0)
(4.30408 0.893507 0)
(3.32387 0.619506 0)
(2.64732 0.454354 0)
(0.760523 0.169798 0)
(-0.267144 -0.204236 0)
(-0.546113 -0.313203 0)
(9.99998 0.0189807 0)
(10.0101 0.0525119 0)
(10.0277 0.0807593 0)
(10.051 0.101123 0)
(10.078 0.114735 0)
(10.105 0.123185 0)
(10.1319 0.128255 0)
(10.156 0.132744 0)
(10.1797 0.136071 0)
(10.2012 0.140536 0)
(10.2238 0.143785 0)
(10.2451 0.147695 0)
(10.2685 0.150205 0)
(10.2908 0.152817 0)
(10.3148 0.154532 0)
(10.3377 0.156046 0)
(10.3612 0.157459 0)
(10.3847 0.158381 0)
(10.4071 0.159817 0)
(10.4312 0.160382 0)
(10.4522 0.161877 0)
(10.4772 0.162149 0)
(10.4964 0.163712 0)
(10.5224 0.16368 0)
(10.5396 0.16535 0)
(10.5663 0.165108 0)
(10.5816 0.166813 0)
(10.6085 0.166676 0)
(10.622 0.168259 0)
(10.6485 0.168453 0)
(10.6603 0.170051 0)
(10.6862 0.170482 0)
(10.696 0.172551 0)
(10.721 0.173114 0)
(10.7285 0.175927 0)
(10.7526 0.176896 0)
(10.7572 0.180519 0)
(10.7807 0.182252 0)
(10.7814 0.187103 0)
(10.805 0.189524 0)
(10.8004 0.196501 0)
(10.8251 0.199567 0)
(10.8137 0.209334 0)
(10.8401 0.213585 0)
(10.8211 0.22617 0)
(10.849 0.233024 0)
(10.8221 0.247872 0)
(10.8506 0.259286 0)
(10.8163 0.275754 0)
(10.8444 0.293476 0)
(10.8021 0.312116 0)
(10.8302 0.336137 0)
(10.7778 0.359493 0)
(10.8073 0.388368 0)
(10.7425 0.419336 0)
(10.7731 0.452181 0)
(10.6957 0.491985 0)
(10.7242 0.528393 0)
(10.6361 0.577428 0)
(10.6561 0.615387 0)
(10.5591 0.673041 0)
(10.5613 0.708403 0)
(10.4551 0.771094 0)
(10.4256 0.798245 0)
(10.3047 0.859781 0)
(10.2238 0.875343 0)
(10.0749 0.934892 0)
(9.91991 0.951737 0)
(9.73105 1.02277 0)
(9.48201 1.06933 0)
(9.24164 1.17385 0)
(8.88529 1.2678 0)
(8.58566 1.38229 0)
(8.10169 1.4582 0)
(7.70709 1.48004 0)
(7.071 1.523 0)
(6.47648 1.47928 0)
(5.706 1.59454 0)
(4.63729 1.56099 0)
(3.58744 1.31322 0)
(9.99967 0.0136029 0)
(10.0073 0.0381859 0)
(10.0191 0.0606533 0)
(10.0373 0.0776713 0)
(10.0581 0.0906238 0)
(10.082 0.0988946 0)
(10.1054 0.104378 0)
(10.1293 0.108337 0)
(10.1516 0.111237 0)
(10.1741 0.114506 0)
(10.1955 0.117243 0)
(10.2177 0.120377 0)
(10.2398 0.122838 0)
(10.2625 0.125371 0)
(10.2858 0.127062 0)
(10.3088 0.128936 0)
(10.3328 0.130033 0)
(10.3559 0.131485 0)
(10.3798 0.132494 0)
(10.4032 0.133577 0)
(10.4266 0.134794 0)
(10.4507 0.135588 0)
(10.4728 0.137007 0)
(10.4981 0.137559 0)
(10.5185 0.139259 0)
(10.5451 0.139438 0)
(10.5635 0.141691 0)
(10.5914 0.141462 0)
(10.6075 0.144295 0)
(10.6365 0.143988 0)
(10.6502 0.147199 0)
(10.6801 0.147177 0)
(10.6913 0.150943 0)
(10.722 0.151091 0)
(10.7304 0.155934 0)
(10.7618 0.15623 0)
(10.767 0.162406 0)
(10.7993 0.163278 0)
(10.8008 0.170818 0)
(10.834 0.172784 0)
(10.8315 0.181982 0)
(10.8657 0.185459 0)
(10.8589 0.196691 0)
(10.8939 0.202149 0)
(10.8831 0.215982 0)
(10.9182 0.223716 0)
(10.904 0.24123 0)
(10.9378 0.251234 0)
(10.9221 0.273714 0)
(10.9525 0.286477 0)
(10.9376 0.314453 0)
(10.9618 0.331529 0)
(10.9515 0.364852 0)
(10.9655 0.387616 0)
(10.9633 0.427472 0)
(10.9651 0.4551 0)
(10.9717 0.504008 0)
(10.9614 0.534846 0)
(10.9757 0.593714 0)
(10.9534 0.627374 0)
(10.9714 0.69367 0)
(10.9385 0.730872 0)
(10.9503 0.799182 0)
(10.9074 0.841893 0)
(10.8993 0.906599 0)
(10.8418 0.960383 0)
(10.7992 1.02186 0)
(10.721 1.09889 0)
(10.6259 1.16491 0)
(10.5251 1.27953 0)
(10.3587 1.35806 0)
(10.2346 1.51991 0)
(9.98517 1.59975 0)
(9.82402 1.78711 0)
(9.4841 1.83883 0)
(9.23637 2.00938 0)
(8.79209 2.03499 0)
(8.33248 2.16131 0)
(7.78121 2.1793 0)
(6.83836 2.21653 0)
(9.99969 0.00992113 0)
(10.0057 0.0276578 0)
(10.0144 0.0451047 0)
(10.0295 0.058431 0)
(10.0459 0.0701714 0)
(10.0672 0.0775324 0)
(10.0874 0.0834717 0)
(10.1108 0.0870128 0)
(10.1316 0.0901241 0)
(10.1548 0.0926049 0)
(10.175 0.0951414 0)
(10.1981 0.0974588 0)
(10.2188 0.0999945 0)
(10.2424 0.101845 0)
(10.2638 0.104092 0)
(10.2881 0.105246 0)
(10.31 0.107129 0)
(10.3347 0.107817 0)
(10.3568 0.109513 0)
(10.3817 0.109977 0)
(10.4035 0.111698 0)
(10.4289 0.112109 0)
(10.4499 0.113898 0)
(10.4761 0.114348 0)
(10.496 0.116205 0)
(10.5229 0.116689 0)
(10.5416 0.11882 0)
(10.5691 0.11923 0)
(10.5865 0.121882 0)
(10.6143 0.122265 0)
(10.6303 0.125449 0)
(10.6585 0.126219 0)
(10.6728 0.129807 0)
(10.7011 0.131288 0)
(10.7137 0.135371 0)
(10.742 0.137893 0)
(10.7529 0.142473 0)
(10.7806 0.146649 0)
(10.7902 0.151641 0)
(10.8167 0.157863 0)
(10.8256 0.164133 0)
(10.85 0.1716 0)
(10.8587 0.181175 0)
(10.8805 0.18851 0)
(10.8897 0.203599 0)
(10.9079 0.209974 0)
(10.9192 0.231826 0)
(10.9314 0.237978 0)
(10.9476 0.266461 0)
(10.9518 0.274284 0)
(10.9743 0.30899 0)
(10.9705 0.320141 0)
(10.999 0.360963 0)
(10.9886 0.377635 0)
(11.0223 0.422842 0)
(11.0073 0.449048 0)
(11.0433 0.495449 0)
(11.0287 0.534721 0)
(11.0608 0.580259 0)
(11.0524 0.633663 0)
(11.074 0.677482 0)
(11.0748 0.744437 0)
(11.0774 0.787437 0)
(11.092 0.865669 0)
(11.0613 0.912947 0)
(11.0939 1.00154 0)
(11.0168 1.06027 0)
(11.0629 1.16396 0)
(10.9366 1.24316 0)
(10.9788 1.36495 0)
(10.8151 1.48179 0)
(10.8257 1.61213 0)
(10.6499 1.78097 0)
(10.586 1.90522 0)
(10.4392 2.10291 0)
(10.2163 2.21891 0)
(10.1311 2.39394 0)
(9.65065 2.52347 0)
(9.59313 2.63721 0)
(8.84226 2.82741 0)
(10.0002 0.00708989 0)
(10.0042 0.0198596 0)
(10.0124 0.0327913 0)
(10.0242 0.0429188 0)
(10.0391 0.0524709 0)
(10.0571 0.0586175 0)
(10.0763 0.0641661 0)
(10.0975 0.0671605 0)
(10.1184 0.0703319 0)
(10.1403 0.0718921 0)
(10.1613 0.0745091 0)
(10.1834 0.0756584 0)
(10.2047 0.0784547 0)
(10.2274 0.07929 0)
(10.2491 0.0818945 0)
(10.2726 0.082413 0)
(10.2948 0.0845587 0)
(10.3189 0.0848999 0)
(10.3411 0.0867345 0)
(10.3658 0.08696 0)
(10.3876 0.0888227 0)
(10.4128 0.0890462 0)
(10.4341 0.0910166 0)
(10.4598 0.0913538 0)
(10.4804 0.0934536 0)
(10.5062 0.0938553 0)
(10.5266 0.0964011 0)
(10.5518 0.096661 0)
(10.5723 0.0998746 0)
(10.5965 0.100222 0)
(10.6173 0.103804 0)
(10.6402 0.105073 0)
(10.6613 0.10844 0)
(10.6823 0.111278 0)
(10.7041 0.114504 0)
(10.7227 0.118833 0)
(10.7453 0.122742 0)
(10.7615 0.128046 0)
(10.7845 0.13362 0)
(10.7986 0.139694 0)
(10.8218 0.147576 0)
(10.8337 0.154599 0)
(10.8569 0.165168 0)
(10.867 0.173707 0)
(10.8898 0.187285 0)
(10.8986 0.197851 0)
(10.9208 0.215071 0)
(10.928 0.228229 0)
(10.951 0.249279 0)
(10.9555 0.266962 0)
(10.9799 0.290409 0)
(10.983 0.315748 0)
(11.0067 0.340277 0)
(11.0119 0.375401 0)
(11.0331 0.400771 0)
(11.0417 0.446857 0)
(11.0593 0.473377 0)
(11.0743 0.530559 0)
(11.0836 0.560091 0)
(11.1112 0.626038 0)
(11.1036 0.662117 0)
(11.1503 0.734385 0)
(11.1177 0.780721 0)
(11.1855 0.857196 0)
(11.1243 0.922553 0)
(11.2068 0.995435 0)
(11.1199 1.0991 0)
(11.2031 1.15709 0)
(11.0992 1.31748 0)
(11.1601 1.36448 0)
(11.0651 1.57693 0)
(11.0608 1.64056 0)
(11.0187 1.87996 0)
(10.906 1.97953 0)
(10.9354 2.22486 0)
(10.7004 2.35458 0)
(10.7664 2.58094 0)
(10.4175 2.75579 0)
(10.4427 2.91982 0)
(10.0147 3.15676 0)
(10.0008 0.00489903 0)
(10.0029 0.0133634 0)
(10.0117 0.0225525 0)
(10.0205 0.0294114 0)
(10.0356 0.0366911 0)
(10.0501 0.0408542 0)
(10.0698 0.045722 0)
(10.088 0.0475285 0)
(10.1101 0.0507309 0)
(10.1297 0.0512254 0)
(10.1527 0.0538904 0)
(10.1724 0.0540369 0)
(10.1963 0.0568561 0)
(10.2156 0.0567538 0)
(10.2409 0.0596376 0)
(10.2598 0.0591813 0)
(10.2869 0.0620284 0)
(10.3051 0.0612305 0)
(10.3338 0.0641102 0)
(10.351 0.0629988 0)
(10.3811 0.0662484 0)
(10.3974 0.0648398 0)
(10.4282 0.0686344 0)
(10.4438 0.0670163 0)
(10.475 0.071267 0)
(10.4901 0.0696928 0)
(10.5216 0.0743857 0)
(10.5357 0.0728466 0)
(10.5678 0.078252 0)
(10.5805 0.0766388 0)
(10.6132 0.0830417 0)
(10.6248 0.0815004 0)
(10.6573 0.088914 0)
(10.668 0.087672 0)
(10.7003 0.0963893 0)
(10.7097 0.095371 0)
(10.742 0.105865 0)
(10.7499 0.105262 0)
(10.7824 0.117425 0)
(10.7882 0.118398 0)
(10.8215 0.131355 0)
(10.8247 0.135418 0)
(10.8588 0.148578 0)
(10.8603 0.156685 0)
(10.893 0.170361 0)
(10.8966 0.182793 0)
(10.9241 0.197696 0)
(10.9327 0.215145 0)
(10.954 0.231113 0)
(10.9673 0.255578 0)
(10.9846 0.271455 0)
(11.0009 0.305018 0)
(11.0157 0.321269 0)
(11.0352 0.363311 0)
(11.0475 0.383028 0)
(11.0709 0.431602 0)
(11.0801 0.457118 0)
(11.1093 0.512022 0)
(11.1128 0.545372 0)
(11.1507 0.603631 0)
(11.1449 0.652776 0)
(11.1931 0.705499 0)
(11.1752 0.783202 0)
(11.2335 0.823201 0)
(11.2023 0.936606 0)
(11.263 0.969428 0)
(11.2284 1.11283 0)
(11.2686 1.15815 0)
(11.2522 1.32285 0)
(11.2453 1.39282 0)
(11.2626 1.58961 0)
(11.1954 1.67881 0)
(11.2513 1.91198 0)
(11.1149 2.03861 0)
(11.2086 2.2692 0)
(11.0048 2.46323 0)
(11.102 2.66176 0)
(10.8548 2.91386 0)
(10.9025 3.08604 0)
(10.6068 3.33876 0)
(10.0008 0.00306508 0)
(10.0025 0.00755608 0)
(10.011 0.0134434 0)
(10.0187 0.017198 0)
(10.0333 0.0218503 0)
(10.0462 0.0243062 0)
(10.0659 0.0274336 0)
(10.0823 0.028753 0)
(10.1051 0.0307365 0)
(10.1228 0.0311607 0)
(10.1475 0.0329505 0)
(10.1652 0.0328623 0)
(10.1912 0.0351597 0)
(10.2082 0.0345215 0)
(10.2359 0.0372871 0)
(10.252 0.0362211 0)
(10.282 0.0392094 0)
(10.2967 0.0379082 0)
(10.3293 0.0409542 0)
(10.342 0.0396023 0)
(10.3774 0.0428345 0)
(10.3877 0.04154 0)
(10.4252 0.0450755 0)
(10.4339 0.0437763 0)
(10.4724 0.0479035 0)
(10.4803 0.0463419 0)
(10.5192 0.0515941 0)
(10.5262 0.0493159 0)
(10.5657 0.0561918 0)
(10.5714 0.0531471 0)
(10.6117 0.0615978 0)
(10.616 0.0585032 0)
(10.6566 0.0676736 0)
(10.6598 0.0659018 0)
(10.7005 0.0748342 0)
(10.7023 0.075315 0)
(10.7433 0.0840329 0)
(10.7438 0.0865731 0)
(10.7845 0.09613 0)
(10.7841 0.100172 0)
(10.8246 0.111365 0)
(10.8226 0.117381 0)
(10.8641 0.129592 0)
(10.8593 0.139488 0)
(10.9027 0.151539 0)
(10.8956 0.166571 0)
(10.939 0.179544 0)
(10.9329 0.198045 0)
(10.9732 0.215425 0)
(10.9714 0.235855 0)
(11.0065 0.258044 0)
(11.0115 0.283711 0)
(11.039 0.307372 0)
(11.0546 0.342198 0)
(11.0716 0.367044 0)
(11.1001 0.410013 0)
(11.1064 0.440119 0)
(11.1476 0.488388 0)
(11.1441 0.52756 0)
(11.1965 0.580316 0)
(11.1853 0.630394 0)
(11.2444 0.690295 0)
(11.2315 0.750755 0)
(11.2877 0.822051 0)
(11.2816 0.897772 0)
(11.3229 0.9747 0)
(11.3316 1.08587 0)
(11.3479 1.15578 0)
(11.3759 1.31681 0)
(11.3563 1.39261 0)
(11.4134 1.58603 0)
(11.342 1.70104 0)
(11.4305 1.91158 0)
(11.3129 2.07123 0)
(11.409 2.30278 0)
(11.2542 2.50396 0)
(11.3502 2.74536 0)
(11.1406 2.97544 0)
(11.2207 3.23869 0)
(10.961 3.43615 0)
(10.0006 0.00122596 0)
(10.0026 0.0022977 0)
(10.0106 0.00486747 0)
(10.0181 0.00563908 0)
(10.0322 0.00775521 0)
(10.0444 0.00811269 0)
(10.0641 0.00987633 0)
(10.0795 0.00986654 0)
(10.1029 0.0112713 0)
(10.1194 0.0108415 0)
(10.1451 0.0123453 0)
(10.1617 0.0116701 0)
(10.1887 0.0135795 0)
(10.205 0.0124801 0)
(10.233 0.0149468 0)
(10.2495 0.0134007 0)
(10.2783 0.0164686 0)
(10.2949 0.0144828 0)
(10.3249 0.0180717 0)
(10.3409 0.0158307 0)
(10.3728 0.0199448 0)
(10.3869 0.0176213 0)
(10.4209 0.0221278 0)
(10.4329 0.0200091 0)
(10.4687 0.024694 0)
(10.4792 0.0231812 0)
(10.5162 0.027866 0)
(10.5252 0.0271041 0)
(10.5636 0.031992 0)
(10.5703 0.0318582 0)
(10.6108 0.0373662 0)
(10.6147 0.0377009 0)
(10.6572 0.0441155 0)
(10.6586 0.045088 0)
(10.7026 0.0524158 0)
(10.7016 0.0543915 0)
(10.7469 0.0628058 0)
(10.7438 0.0656989 0)
(10.7898 0.0760344 0)
(10.7852 0.0793562 0)
(10.8317 0.092298 0)
(10.8251 0.0967556 0)
(10.8737 0.111301 0)
(10.8632 0.119202 0)
(10.9154 0.133594 0)
(10.9011 0.147045 0)
(10.9551 0.160989 0)
(10.9411 0.179817 0)
(10.9926 0.19564 0)
(10.9839 0.217881 0)
(11.0281 0.238604 0)
(11.03 0.263105 0)
(11.0633 0.289996 0)
(11.0787 0.317615 0)
(11.1011 0.350658 0)
(11.1286 0.382877 0)
(11.1435 0.421915 0)
(11.18 0.461453 0)
(11.191 0.505003 0)
(11.2325 0.554329 0)
(11.2449 0.606848 0)
(11.2859 0.658491 0)
(11.3032 0.736782 0)
(11.3422 0.778233 0)
(11.364 0.892852 0)
(11.3952 0.933471 0)
(11.4327 1.06998 0)
(11.4379 1.13831 0)
(11.5014 1.28532 0)
(11.4785 1.38882 0)
(11.5546 1.56298 0)
(11.5101 1.698 0)
(11.5983 1.89831 0)
(11.5108 2.08893 0)
(11.6177 2.30113 0)
(11.4878 2.53919 0)
(11.5752 2.78912 0)
(11.4277 3.0384 0)
(11.4463 3.31707 0)
(11.2952 3.59237 0)
(10.0006 -0.000576719 0)
(10.0028 -0.00294319 0)
(10.0105 -0.00330658 0)
(10.0182 -0.0059854 0)
(10.0318 -0.0058259 0)
(10.0449 -0.00809619 0)
(10.0637 -0.00736685 0)
(10.0801 -0.00897607 0)
(10.1023 -0.00820648 0)
(10.12 -0.00931801 0)
(10.1448 -0.00843625 0)
(10.1622 -0.00925584 0)
(10.1889 -0.0083119 0)
(10.2051 -0.00914232 0)
(10.2336 -0.00791225 0)
(10.2497 -0.00885026 0)
(10.2788 -0.00695279 0)
(10.2958 -0.00838359 0)
(10.3248 -0.0054572 0)
(10.3428 -0.00747734 0)
(10.3719 -0.00360021 0)
(10.3899 -0.00575809 0)
(10.4196 -0.00168386 0)
(10.4367 -0.00305136 0)
(10.4674 0.000509 0)
(10.4836 0.00054278 0)
(10.5152 0.00351711 0)
(10.53 0.0046896 0)
(10.5632 0.00801136 0)
(10.5754 0.00927051 0)
(10.6114 0.0143417 0)
(10.62 0.0146467 0)
(10.6592 0.0222736 0)
(10.664 0.0218065 0)
(10.7062 0.0313149 0)
(10.7073 0.0316253 0)
(10.7525 0.041644 0)
(10.7498 0.044292 0)
(10.7975 0.0543741 0)
(10.7922 0.0591773 0)
(10.8408 0.07084 0)
(10.835 0.0766473 0)
(10.8823 0.0907015 0)
(10.8783 0.0990037 0)
(10.9228 0.113057 0)
(10.9215 0.127591 0)
(10.9639 0.139488 0)
(10.9634 0.16117 0)
(11.0078 0.173213 0)
(11.0039 0.19916 0)
(11.0542 0.214939 0)
(11.0462 0.244493 0)
(11.1009 0.263999 0)
(11.0936 0.298576 0)
(11.1477 0.323446 0)
(11.1457 0.359666 0)
(11.198 0.397674 0)
(11.202 0.428785 0)
(11.2522 0.487476 0)
(11.264 0.512148 0)
(11.3121 0.589116 0)
(11.3283 0.621476 0)
(11.3825 0.699973 0)
(11.3938 0.762105 0)
(11.4585 0.834957 0)
(11.4681 0.924674 0)
(11.5341 1.0158 0)
(11.5456 1.11943 0)
(11.6196 1.23504 0)
(11.6105 1.38183 0)
(11.7123 1.49805 0)
(11.67 1.70451 0)
(11.7831 1.85365 0)
(11.727 2.0789 0)
(11.8187 2.30027 0)
(11.7533 2.54278 0)
(11.8038 2.81455 0)
(11.7236 3.09563 0)
(11.7045 3.38815 0)
(11.5934 3.70116 0)
(9.99994 -0.0026281 0)
(10.0038 -0.00782546 0)
(10.0101 -0.0122189 0)
(10.0197 -0.0172537 0)
(10.0321 -0.020243 0)
(10.0475 -0.0239376 0)
(10.0648 -0.0252384 0)
(10.0838 -0.0276748 0)
(10.1037 -0.0279283 0)
(10.1245 -0.0296119 0)
(10.1465 -0.0291291 0)
(10.1669 -0.0305734 0)
(10.1909 -0.030006 0)
(10.2096 -0.0311413 0)
(10.2364 -0.0307896 0)
(10.2537 -0.0310463 0)
(10.2826 -0.0310332 0)
(10.2996 -0.0304316 0)
(10.3293 -0.0303707 0)
(10.3467 -0.0294948 0)
(10.3767 -0.0286582 0)
(10.3941 -0.0282947 0)
(10.4244 -0.0261824 0)
(10.4416 -0.0264923 0)
(10.4722 -0.0231391 0)
(10.4895 -0.0236633 0)
(10.5197 -0.0195439 0)
(10.5374 -0.0196267 0)
(10.5673 -0.0150491 0)
(10.5845 -0.0143707 0)
(10.6154 -0.00920588 0)
(10.6303 -0.00786886 0)
(10.6638 -0.00182636 0)
(10.6752 0.000504903 0)
(10.7116 0.00669187 0)
(10.7199 0.0116913 0)
(10.7581 0.0164178 0)
(10.765 0.0254595 0)
(10.8027 0.0291225 0)
(10.8104 0.0406387 0)
(10.8467 0.0463601 0)
(10.8546 0.0576628 0)
(10.8916 0.06737 0)
(10.8975 0.0789213 0)
(10.9366 0.0911676 0)
(10.9414 0.10582 0)
(10.9809 0.118844 0)
(10.9865 0.137739 0)
(11.0268 0.153191 0)
(11.031 0.173789 0)
(11.0767 0.195718 0)
(11.076 0.215559 0)
(11.129 0.246166 0)
(11.1257 0.265642 0)
(11.1823 0.304899 0)
(11.1814 0.325829 0)
(11.2394 0.372382 0)
(11.2427 0.400505 0)
(11.3019 0.448025 0)
(11.3103 0.492494 0)
(11.3713 0.539824 0)
(11.3848 0.595748 0)
(11.4502 0.660114 0)
(11.4648 0.715446 0)
(11.5427 0.803173 0)
(11.546 0.876277 0)
(11.6525 0.967 0)
(11.6327 1.07945 0)
(11.7634 1.18902 0)
(11.7414 1.31356 0)
(11.8657 1.48514 0)
(11.8521 1.61918 0)
(11.9728 1.84023 0)
(11.9467 2.02673 0)
(12.0512 2.27901 0)
(12.0244 2.53175 0)
(12.069 2.82289 0)
(12.0382 3.12539 0)
(11.995 3.47346 0)
(11.9452 3.79314 0)
(9.99972 -0.00497902 0)
(10.0042 -0.0128754 0)
(10.0107 -0.0218527 0)
(10.0212 -0.0291332 0)
(10.0348 -0.035284 0)
(10.0511 -0.0403547 0)
(10.0692 -0.0435189 0)
(10.0894 -0.0466934 0)
(10.1089 -0.0478551 0)
(10.1319 -0.0500613 0)
(10.1514 -0.0499585 0)
(10.1754 -0.0521919 0)
(10.1953 -0.0517356 0)
(10.2189 -0.0536988 0)
(10.2408 -0.0533614 0)
(10.2635 -0.0542752 0)
(10.2875 -0.0541168 0)
(10.3095 -0.0542505 0)
(10.335 -0.0534982 0)
(10.3566 -0.0538795 0)
(10.3831 -0.0516847 0)
(10.4039 -0.0530855 0)
(10.4318 -0.0492533 0)
(10.4513 -0.0512996 0)
(10.4807 -0.0466368 0)
(10.4988 -0.047874 0)
(10.5295 -0.0439635 0)
(10.5467 -0.0427058 0)
(10.5781 -0.0403993 0)
(10.5944 -0.0366425 0)
(10.6267 -0.0344732 0)
(10.6414 -0.0305681 0)
(10.6757 -0.0255056 0)
(10.6873 -0.0237773 0)
(10.7247 -0.014689 0)
(10.7326 -0.0139204 0)
(10.7727 -0.00377132 0)
(10.7784 0.000285457 0)
(10.8194 0.00817396 0)
(10.8242 0.0172399 0)
(10.8662 0.0242813 0)
(10.8685 0.0348706 0)
(10.9145 0.0458198 0)
(10.9121 0.0551746 0)
(10.962 0.0705675 0)
(10.9591 0.0807929 0)
(11.0062 0.099046 0)
(11.011 0.110408 0)
(11.0495 0.13492 0)
(11.0643 0.143097 0)
(11.0971 0.177899 0)
(11.1176 0.184007 0)
(11.1496 0.222946 0)
(11.1734 0.239151 0)
(11.207 0.270218 0)
(11.2327 0.305503 0)
(11.2716 0.330747 0)
(11.2969 0.37399 0)
(11.344 0.412986 0)
(11.368 0.44953 0)
(11.4265 0.508626 0)
(11.4456 0.550829 0)
(11.5225 0.610945 0)
(11.5337 0.681128 0)
(11.6265 0.742161 0)
(11.6427 0.824036 0)
(11.7389 0.924937 0)
(11.7626 0.999374 0)
(11.8781 1.13923 0)
(11.888 1.25347 0)
(12.0237 1.39462 0)
(12.0427 1.58394 0)
(12.1571 1.74085 0)
(12.2017 1.9951 0)
(12.2776 2.20421 0)
(12.3368 2.51044 0)
(12.3463 2.79732 0)
(12.4046 3.15641 0)
(12.3227 3.49808 0)
(12.334 3.93924 0)
(10.0001 -0.00734548 0)
(10.0045 -0.0189587 0)
(10.012 -0.0325869 0)
(10.0239 -0.0421904 0)
(10.0393 -0.0516553 0)
(10.057 -0.0574228 0)
(10.0769 -0.0628354 0)
(10.0976 -0.0656581 0)
(10.1185 -0.0684566 0)
(10.1415 -0.0701366 0)
(10.1616 -0.0714278 0)
(10.1858 -0.0735373 0)
(10.2051 -0.0740102 0)
(10.2306 -0.0761927 0)
(10.2501 -0.0762606 0)
(10.2769 -0.0774678 0)
(10.2962 -0.0776162 0)
(10.3244 -0.0775397 0)
(10.3434 -0.0777709 0)
(10.3724 -0.076844 0)
(10.3918 -0.0768278 0)
(10.42 -0.0757535 0)
(10.4412 -0.0749201 0)
(10.4673 -0.0740736 0)
(10.4914 -0.0722678 0)
(10.5147 -0.0710578 0)
(10.5416 -0.0693279 0)
(10.5627 -0.0661085 0)
(10.5908 -0.0656569 0)
(10.612 -0.0600025 0)
(10.6389 -0.05943 0)
(10.6615 -0.0543187 0)
(10.6873 -0.0493064 0)
(10.7091 -0.0487082 0)
(10.7373 -0.0367736 0)
(10.7548 -0.0400135 0)
(10.7872 -0.0247651 0)
(10.8017 -0.0257179 0)
(10.8343 -0.0131829 0)
(10.851 -0.00773808 0)
(10.8795 0.00207627 0)
(10.9 0.0104997 0)
(10.9276 0.0233956 0)
(10.9457 0.0306638 0)
(10.9786 0.0471379 0)
(10.992 0.0583462 0)
(11.0283 0.0703197 0)
(11.0436 0.0942473 0)
(11.0756 0.0970985 0)
(11.0998 0.133207 0)
(11.125 0.134311 0)
(11.1581 0.172312 0)
(11.1787 0.182953 0)
(11.2202 0.215604 0)
(11.2376 0.238751 0)
(11.2868 0.270471 0)
(11.3049 0.297845 0)
(11.3581 0.341931 0)
(11.3818 0.363331 0)
(11.4388 0.424847 0)
(11.467 0.451012 0)
(11.5324 0.509544 0)
(11.5664 0.568497 0)
(11.6348 0.613289 0)
(11.6878 0.695228 0)
(11.7501 0.76875 0)
(11.8274 0.832767 0)
(11.8914 0.964314 0)
(11.9815 1.02968 0)
(12.0612 1.19017 0)
(12.1572 1.30301 0)
(12.2514 1.482 0)
(12.3502 1.67235 0)
(12.4529 1.87393 0)
(12.5427 2.14852 0)
(12.6463 2.42388 0)
(12.685 2.75978 0)
(12.7771 3.13697 0)
(12.7367 3.54796 0)
(12.75 3.98803 0)
(10.0011 -0.010011 0)
(10.0045 -0.0267524 0)
(10.0151 -0.0451964 0)
(10.0279 -0.0573252 0)
(10.0476 -0.0699207 0)
(10.0655 -0.0756821 0)
(10.0899 -0.0832255 0)
(10.1087 -0.0847792 0)
(10.1345 -0.0894941 0)
(10.1533 -0.0902049 0)
(10.1789 -0.0931789 0)
(10.1973 -0.0949402 0)
(10.2232 -0.0966711 0)
(10.2424 -0.0983536 0)
(10.2688 -0.0998013 0)
(10.2899 -0.0998591 0)
(10.3148 -0.101603 0)
(10.3393 -0.10036 0)
(10.3613 -0.101609 0)
(10.3892 -0.100567 0)
(10.4089 -0.100096 0)
(10.4386 -0.100777 0)
(10.4576 -0.0971039 0)
(10.4877 -0.100913 0)
(10.5073 -0.0928959 0)
(10.5367 -0.0995496 0)
(10.5575 -0.0892431 0)
(10.5861 -0.0943271 0)
(10.6068 -0.0873234 0)
(10.6371 -0.0852131 0)
(10.6542 -0.0848119 0)
(10.6892 -0.0757112 0)
(10.7014 -0.077468 0)
(10.7398 -0.0686562 0)
(10.7509 -0.0644183 0)
(10.7876 -0.0616681 0)
(10.8016 -0.0497798 0)
(10.8358 -0.0497041 0)
(10.8494 -0.0366415 0)
(10.8876 -0.0320677 0)
(10.8947 -0.0223772 0)
(10.939 -0.0118833 0)
(10.9443 -0.00384656 0)
(10.9848 0.0100925 0)
(11.0005 0.0185048 0)
(11.028 0.0362277 0)
(11.0585 0.0436438 0)
(11.0742 0.0671069 0)
(11.1166 0.0737874 0)
(11.1242 0.100524 0)
(11.1765 0.113111 0)
(11.1795 0.134571 0)
(11.2368 0.161904 0)
(11.2442 0.174865 0)
(11.2973 0.213271 0)
(11.3193 0.22925 0)
(11.3631 0.2675 0)
(11.4021 0.29291 0)
(11.4413 0.336532 0)
(11.4895 0.362228 0)
(11.5381 0.41848 0)
(11.5848 0.453012 0)
(11.6498 0.504784 0)
(11.7044 0.571224 0)
(11.7683 0.614289 0)
(11.8537 0.700467 0)
(11.9131 0.774426 0)
(12.0114 0.84548 0)
(12.1139 0.981388 0)
(12.1822 1.04706 0)
(12.3447 1.22987 0)
(12.4152 1.34426 0)
(12.5823 1.54767 0)
(12.6853 1.75999 0)
(12.8452 2.00751 0)
(12.9512 2.31931 0)
(13.0952 2.66612 0)
(13.1533 3.06639 0)
(13.2558 3.56494 0)
(13.1944 4.02186 0)
(10.0026 -0.0132469 0)
(10.0047 -0.0378338 0)
(10.0208 -0.0604711 0)
(10.0353 -0.0767168 0)
(10.0604 -0.0904516 0)
(10.0803 -0.096996 0)
(10.1082 -0.104763 0)
(10.1271 -0.105868 0)
(10.1552 -0.111344 0)
(10.172 -0.112005 0)
(10.201 -0.115838 0)
(10.2152 -0.118027 0)
(10.2474 -0.120114 0)
(10.2594 -0.12197 0)
(10.2953 -0.123819 0)
(10.3067 -0.123362 0)
(10.3429 -0.125954 0)
(10.3566 -0.123913 0)
(10.3896 -0.126129 0)
(10.408 -0.124372 0)
(10.4365 -0.124888 0)
(10.4593 -0.124715 0)
(10.4842 -0.122106 0)
(10.5105 -0.125219 0)
(10.5333 -0.117569 0)
(10.5606 -0.124499 0)
(10.5839 -0.113666 0)
(10.61 -0.119012 0)
(10.6342 -0.112852 0)
(10.6614 -0.108011 0)
(10.6813 -0.112579 0)
(10.7157 -0.0962064 0)
(10.7267 -0.106804 0)
(10.7687 -0.0884262 0)
(10.7757 -0.0929531 0)
(10.8166 -0.0834335 0)
(10.8285 -0.0750157 0)
(10.8627 -0.0753771 0)
(10.8795 -0.0576667 0)
(10.913 -0.0618684 0)
(10.9264 -0.0393039 0)
(10.9652 -0.0463371 0)
(10.9753 -0.015853 0)
(11.0136 -0.0301971 0)
(11.0304 0.0118775 0)
(11.0594 -0.00981242 0)
(11.0881 0.0396719 0)
(11.1081 0.0195657 0)
(11.1464 0.0647139 0)
(11.1613 0.0593494 0)
(11.2069 0.0912735 0)
(11.2186 0.102157 0)
(11.2727 0.130515 0)
(11.2792 0.141369 0)
(11.3472 0.182428 0)
(11.346 0.188365 0)
(11.4259 0.230712 0)
(11.4327 0.260162 0)
(11.5004 0.273214 0)
(11.5434 0.343934 0)
(11.5866 0.34193 0)
(11.6559 0.409886 0)
(11.7167 0.457738 0)
(11.7597 0.474095 0)
(11.8824 0.584533 0)
(11.8999 0.593201 0)
(12.0445 0.69725 0)
(12.103 0.773367 0)
(12.2292 0.839891 0)
(12.3415 0.981498 0)
(12.4778 1.05839 0)
(12.6111 1.24209 0)
(12.7965 1.3741 0)
(12.9232 1.5989 0)
(13.1672 1.84778 0)
(13.2728 2.12383 0)
(13.5303 2.55053 0)
(13.6073 2.92988 0)
(13.7906 3.51849 0)
(13.8155 4.07906 0)
(10.0028 -0.0182123 0)
(10.0084 -0.0529411 0)
(10.0287 -0.0800141 0)
(10.0509 -0.100586 0)
(10.0789 -0.114547 0)
(10.106 -0.121345 0)
(10.1323 -0.129458 0)
(10.157 -0.129605 0)
(10.1804 -0.137634 0)
(10.2027 -0.137022 0)
(10.2258 -0.144085 0)
(10.2462 -0.144439 0)
(10.2728 -0.149229 0)
(10.2909 -0.14862 0)
(10.3222 -0.1534 0)
(10.3373 -0.149371 0)
(10.3715 -0.156364 0)
(10.3848 -0.149044 0)
(10.4205 -0.15769 0)
(10.4323 -0.14856 0)
(10.4702 -0.157631 0)
(10.4784 -0.148088 0)
(10.5209 -0.155183 0)
(10.5237 -0.149127 0)
(10.5718 -0.148687 0)
(10.5689 -0.151434 0)
(10.6217 -0.140498 0)
(10.6152 -0.150139 0)
(10.6682 -0.135724 0)
(10.6653 -0.141335 0)
(10.7092 -0.134667 0)
(10.7194 -0.128027 0)
(10.747 -0.131482 0)
(10.7721 -0.116095 0)
(10.7884 -0.121902 0)
(10.8186 -0.106339 0)
(10.8341 -0.10792 0)
(10.8633 -0.0949594 0)
(10.8764 -0.0923559 0)
(10.9146 -0.0808142 0)
(10.9112 -0.0740972 0)
(10.9711 -0.0646778 0)
(10.9461 -0.0533991 0)
(11.0246 -0.0439497 0)
(10.9886 -0.0329026 0)
(11.0724 -0.0174891 0)
(11.0402 -0.0109463 0)
(11.1157 0.0126228 0)
(11.1025 0.0126494 0)
(11.1568 0.0495263 0)
(11.173 0.0353016 0)
(11.2032 0.0927024 0)
(11.2469 0.0671451 0)
(11.26 0.130292 0)
(11.3245 0.118178 0)
(11.3298 0.163237 0)
(11.4085 0.177399 0)
(11.4161 0.209619 0)
(11.4999 0.231168 0)
(11.5206 0.277569 0)
(11.6087 0.285727 0)
(11.6387 0.355737 0)
(11.7468 0.35938 0)
(11.7733 0.443537 0)
(11.9147 0.44207 0)
(11.9413 0.56472 0)
(12.1096 0.545405 0)
(12.1535 0.692763 0)
(12.3476 0.710332 0)
(12.4041 0.840957 0)
(12.6591 0.923294 0)
(12.7292 1.04658 0)
(13.0165 1.21455 0)
(13.1613 1.36843 0)
(13.4512 1.60612 0)
(13.6852 1.90272 0)
(13.9264 2.24601 0)
(14.2161 2.7689 0)
(14.3412 3.30048 0)
(14.5774 4.10519 0)
(10.0013 -0.0260604 0)
(10.0176 -0.0705733 0)
(10.0418 -0.0984752 0)
(10.0782 -0.118108 0)
(10.1059 -0.125538 0)