/*--------------------------------*- C++ -*----------------------------------*\
| =========                 |                                                 |
| \\      /  F ield         | OpenFOAM: The Open Source CFD Toolbox           |
|  \\    /   O peration     | Version:  2306                                  |
|   \\  /    A nd           | Website:  www.openfoam.com                      |
|    \\/     M anipulation  |                                                 |
\*---------------------------------------------------------------------------*/
FoamFile
{
    version     2.0;
    format      ascii;
    arch        "LSB;label=32;scalar=64";
    class       volScalarField;
    location    "0.1";
    object      p;
}
// * * * * * * * * * * * * * * * * * * * * * * * * * * * * * * * * * * * * * //

dimensions      [0 2 -2 0 0 0 0];

internalField   nonuniform List<scalar> 
4400
(
413.539
412.523
411.616
410.943
410.493
410.186
409.941
409.712
409.478
409.236
408.99
408.741
408.493
408.246
408
407.754
407.509
407.263
407.016
406.768
406.52
406.271
406.022
405.774
405.526
405.279
405.033
404.789
404.547
404.307
404.071
403.838
403.611
403.389
403.172
402.962
402.759
402.565
402.38
402.204
402.041
401.889
401.751
401.627
401.52
401.43
401.36
401.31
401.283
401.281
401.306
401.36
401.445
401.566
401.723
401.917
402.153
402.431
402.755
403.123
403.534
403.986
404.472
404.982
405.5
406.006
406.473
406.867
407.142
407.306
407.167
406.778
406.23
405.843
406.061
406.783
407.632
408.063
407.922
407.507
412.077
411.734
411.302
410.86
410.468
410.143
409.874
409.638
409.414
409.189
408.957
408.719
408.477
408.233
407.988
407.743
407.499
407.254
407.008
406.762
406.515
406.268
406.02
405.772
405.526
405.28
405.035
404.791
404.55
404.311
404.076
403.844
403.617
403.395
403.179
402.97
402.766
402.572
402.387
402.21
402.045
401.891
401.752
401.627
401.516
401.423
401.349
401.295
401.264
401.257
401.275
401.323
401.401
401.514
401.661
401.846
402.072
402.339
402.651
403.006
403.406
403.845
404.318
404.815
405.32
405.815
406.271
406.658
406.933
407.039
406.896
406.504
406.014
405.761
406.265
407.478
408.792
408.973
407.813
406.479
411.531
411.365
411.108
410.79
410.455
410.14
409.859
409.608
409.379
409.156
408.932
408.702
408.466
408.226
407.982
407.738
407.494
407.249
407.004
406.759
406.513
406.267
406.021
405.774
405.528
405.284
405.04
404.798
404.558
404.32
404.085
403.854
403.627
403.405
403.189
402.98
402.776
402.581
402.393
402.215
402.047
401.889
401.747
401.617
401.501
401.401
401.317
401.255
401.213
401.194
401.198
401.231
401.29
401.38
401.5
401.655
401.848
402.075
402.341
402.642
402.981
403.354
403.754
404.171
404.592
405.002
405.377
405.69
405.907
405.998
405.941
405.785
405.662
405.814
406.343
407.085
407.657
407.636
407.314
407.487
411.116
411.016
410.842
410.609
410.343
410.07
409.807
409.561
409.331
409.109
408.889
408.666
408.438
408.203
407.965
407.724
407.481
407.238
406.995
406.751
406.506
406.262
406.017
405.772
405.527
405.284
405.042
404.8
404.561
404.324
404.09
403.858
403.631
403.409
403.192
402.982
402.777
402.58
402.39
402.208
402.037
401.874
401.726
401.589
401.467
401.358
401.262
401.188
401.13
401.095
401.08
401.089
401.122
401.178
401.262
401.377
401.525
401.698
401.901
402.133
402.394
402.683
402.988
403.303
403.616
403.916
404.185
404.403
404.555
404.629
404.643
404.643
404.71
404.924
405.285
405.728
406.117
406.392
406.617
406.846
410.816
410.747
410.623
410.448
410.236
410.003
409.764
409.53
409.302
409.081
408.861
408.641
408.416
408.187
407.953
407.715
407.475
407.233
406.99
406.748
406.503
406.26
406.015
405.771
405.527
405.284
405.043
404.802
404.563
404.326
404.091
403.859
403.632
403.408
403.19
402.978
402.772
402.573
402.378
402.192
402.015
401.847
401.693
401.548
401.418
401.298
401.189
401.1
401.025
400.97
400.933
400.917
400.919
400.939
400.983
401.054
401.153
401.268
401.404
401.56
401.741
401.939
402.144
402.348
402.548
402.733
402.889
403.009
403.082
403.119
403.133
403.154
403.221
403.355
403.573
403.855
404.18
404.507
404.777
404.945
410.598
410.546
410.45
410.31
410.136
409.935
409.719
409.497
409.275
409.056
408.837
408.618
408.395
408.169
407.938
407.704
407.466
407.226
406.985
406.743
406.499
406.256
406.011
405.767
405.524
405.281
405.04
404.799
404.561
404.324
404.088
403.855
403.626
403.401
403.181
402.966
402.759
402.555
402.357
402.166
401.984
401.809
401.647
401.494
401.354
401.223
401.1
400.994
400.899
400.824
400.764
400.722
400.693
400.675
400.677
400.703
400.752
400.807
400.875
400.957
401.055
401.165
401.269
401.367
401.455
401.526
401.574
401.591
401.576
401.542
401.496
401.457
401.442
401.464
401.55
401.691
401.886
402.092
402.263
402.383
410.44
410.398
410.317
410.199
410.049
409.871
409.675
409.466
409.251
409.035
408.817
408.599
408.377
408.153
407.925
407.692
407.458
407.218
406.979
406.737
406.493
406.251
406.006
405.763
405.519
405.276
405.036
404.794
404.555
404.318
404.08
403.847
403.615
403.389
403.166
402.948
402.739
402.531
402.329
402.133
401.944
401.762
401.59
401.428
401.279
401.134
400.996
400.874
400.76
400.663
400.578
400.51
400.45
400.393
400.353
400.334
400.332
400.331
400.33
400.338
400.356
400.379
400.387
400.381
400.362
400.323
400.265
400.173
400.059
399.925
399.781
399.643
399.507
399.407
399.342
399.324
399.352
399.392
399.442
399.472
410.328
410.292
410.22
410.115
409.981
409.82
409.638
409.438
409.232
409.019
408.802
408.585
408.363
408.141
407.913
407.683
407.45
407.211
406.974
406.732
406.489
406.245
406.001
405.758
405.512
405.27
405.029
404.786
404.548
404.308
404.07
403.835
403.601
403.373
403.146
402.925
402.713
402.5
402.293
402.091
401.896
401.706
401.523
401.354
401.193
401.034
400.882
400.743
400.609
400.49
400.378
400.285
400.194
400.099
400.016
399.952
399.902
399.843
399.777
399.711
399.653
399.592
399.506
399.402
399.278
399.134
398.964
398.762
398.533
398.282
398.017
397.746
397.475
397.222
396.995
396.801
396.646
396.517
396.42
396.344
410.257
410.223
410.156
410.06
409.935
409.783
409.611
409.418
409.217
409.007
408.792
408.575
408.353
408.132
407.904
407.676
407.443
407.205
406.969
406.726
406.484
406.24
405.995
405.752
405.504
405.263
405.02
404.776
404.537
404.296
404.057
403.818
403.582
403.353
403.12
402.897
402.681
402.462
402.252
402.041
401.841
401.642
401.449
401.271
401.098
400.925
400.758
400.602
400.45
400.307
400.169
400.05
399.929
399.796
399.672
399.562
399.465
399.352
399.22
399.085
398.952
398.812
398.635
398.438
398.209
397.96
397.678
397.356
397.003
396.617
396.215
395.789
395.361
394.935
394.523
394.142
393.791
393.491
393.234
393.044
410.222
410.189
410.123
410.033
409.912
409.765
409.596
409.407
409.21
409
408.788
408.568
408.347
408.127
407.897
407.672
407.437
407.201
406.964
406.72
406.48
406.232
405.989
405.744
405.495
405.255
405.008
404.765
404.523
404.28
404.041
403.797
403.561
403.327
403.091
402.865
402.643
402.42
402.204
401.986
401.78
401.571
401.368
401.181
400.995
400.809
400.627
400.453
400.283
400.117
399.953
399.81
399.656
399.489
399.325
399.172
399.027
398.861
398.667
398.467
398.263
398.042
397.784
397.49
397.162
396.804
396.408
395.96
395.473
394.942
394.381
393.789
393.174
392.555
391.936
391.346
390.788
390.291
389.872
389.552
410.223
410.188
410.121
410.033
409.911
409.765
409.594
409.406
409.21
408.998
408.787
408.565
408.346
408.124
407.895
407.67
407.432
407.199
406.959
406.716
406.475
406.224
405.983
405.735
405.486
405.244
404.995
404.752
404.507
404.262
404.021
403.773
403.536
403.297
403.057
402.829
402.599
402.375
402.149
401.926
401.713
401.494
401.282
401.086
400.885
400.689
400.489
400.299
400.11
399.922
399.734
399.566
399.38
399.18
398.98
398.782
398.595
398.374
398.127
397.862
397.592
397.292
396.954
396.568
396.14
395.677
395.159
394.584
393.952
393.267
392.531
391.75
390.931
390.085
389.235
388.403
387.604
386.882
386.257
385.788
410.259
410.218
410.151
410.062
409.933
409.783
409.604
409.416
409.216
409.003
408.791
408.566
408.35
408.124
407.896
407.67
407.43
407.198
406.954
406.712
406.469
406.217
405.977
405.724
405.477
405.232
404.98
404.738
404.486
404.244
403.997
403.748
403.507
403.263
403.022
402.788
402.552
402.324
402.09
401.862
401.641
401.412
401.194
400.984
400.772
400.563
400.348
400.14
399.936
399.723
399.518
399.318
399.105
398.874
398.64
398.4
398.171
397.9
397.601
397.279
396.939
396.57
396.151
395.679
395.153
394.586
393.945
393.239
392.457
391.605
390.681
389.691
388.638
387.538
386.416
385.29
384.209
383.191
382.318
381.629
410.329
410.283
410.215
410.118
409.978
409.817
409.627
409.436
409.228
409.013
408.798
408.572
408.359
408.128
407.903
407.671
407.431
407.198
406.949
406.711
406.461
406.212
405.969
405.713
405.468
405.218
404.966
404.721
404.466
404.223
403.97
403.72
403.476
403.226
402.984
402.741
402.503
402.268
402.028
401.793
401.564
401.327
401.102
400.877
400.657
400.433
400.205
399.98
399.759
399.525
399.301
399.073
398.833
398.577
398.306
398.033
397.758
397.444
397.093
396.723
396.313
395.882
395.385
394.83
394.214
393.538
392.78
391.94
391.006
389.973
388.854
387.627
386.32
384.92
383.479
382.005
380.545
379.176
377.931
376.944
410.438
410.386
410.315
410.201
410.044
409.866
409.661
409.465
409.244
409.029
408.808
408.584
408.37
408.135
407.912
407.672
407.434
407.197
406.945
406.709
406.453
406.208
405.96
405.703
405.459
405.201
404.954
404.7
404.446
404.199
403.942
403.691
403.441
403.188
402.943
402.693
402.451
402.208
401.963
401.721
401.483
401.238
401.007
400.768
400.537
400.302
400.058
399.823
399.579
399.333
399.086
398.834
398.565
398.288
397.984
397.681
397.362
397.006
396.614
396.192
395.726
395.232
394.664
394.031
393.331
392.549
391.68
390.705
389.619
388.405
387.067
385.605
383.983
382.271
380.425
378.523
376.614
374.719
373.029
371.553
410.59
410.535
410.454
410.311
410.129
409.925
409.706
409.497
409.265
409.05
408.822
408.604
408.384
408.148
407.922
407.677
407.44
407.196
406.946
406.705
406.449
406.203
405.95
405.695
405.447
405.186
404.938
404.679
404.425
404.172
403.912
403.66
403.402
403.149
402.897
402.644
402.395
402.146
401.895
401.647
401.399
401.15
400.906
400.66
400.414
400.172
399.91
399.666
399.402
399.143
398.875
398.6
398.309
398.006
397.678
397.344
396.989
396.593
396.166
395.695
395.177
394.629
393.99
393.294
392.509
391.635
390.655
389.558
388.318
386.925
385.383
383.621
381.727
379.573
377.32
374.858
372.338
369.827
367.383
365.298
410.801
410.738
410.632
410.445
410.229
409.989
409.754
409.528
409.29
409.074
408.842
408.628
408.399
408.164
407.931
407.683
407.445
407.194
406.948
406.701
406.445
406.199
405.94
405.688
405.431
405.174
404.92
404.658
404.403
404.142
403.883
403.625
403.364
403.107
402.848
402.594
402.335
402.084
401.822
401.572
401.314
401.059
400.806
400.549
400.295
400.038
399.771
399.507
399.235
398.955
398.672
398.373
398.067
397.738
397.387
397.028
396.638
396.211
395.752
395.234
394.678
394.07
393.383
392.619
391.77
390.794
389.739
388.497
387.15
385.56
383.825
381.805
379.525
377.017
374.132
371.093
367.747
364.334
360.975
357.762
411.098
411.009
410.851
410.602
410.334
410.054
409.799
409.557
409.319
409.098
408.87
408.651
408.417
408.179
407.938
407.689
407.446
407.195
406.946
406.697
406.44
406.191
405.93
405.678
405.416
405.158
404.899
404.636
404.377
404.112
403.851
403.587
403.325
403.061
402.799
402.539
402.273
402.019
401.748
401.493
401.228
400.962
400.708
400.434
400.176
399.903
399.628
399.354
399.067
398.775
398.475
398.16
397.832
397.49
397.11
396.737
396.314
395.859
395.378
394.814
394.232
393.569
392.843
392.023
391.107
390.075
388.891
387.612
386.057
384.408
382.404
380.173
377.586
374.548
371.168
367.23
362.892
358.237
353.442
348.731
411.513
411.361
411.112
410.782
410.446
410.125
409.852
409.602
409.368
409.142
408.914
408.683
408.446
408.198
407.952
407.702
407.452
407.203
406.949
406.699
406.442
406.186
405.928
405.668
405.406
405.145
404.88
404.617
404.35
404.086
403.819
403.55
403.288
403.013
402.755
402.481
402.216
401.953
401.676
401.416
401.144
400.87
400.609
400.325
400.061
399.776
399.496
399.208
398.915
398.611
398.302
397.964
397.636
397.258
396.881
396.481
396.027
395.566
395.05
394.451
393.86
393.144
392.383
391.525
390.562
389.452
388.229
386.819
385.212
383.389
381.264
378.762
375.948
372.453
368.492
363.688
358.002
351.562
344.463
337.311
412.061
411.725
411.307
410.852
410.459
410.129
409.864
409.634
409.4
409.175
408.937
408.697
408.456
408.202
407.958
407.703
407.455
407.204
406.949
406.696
406.438
406.18
405.919
405.658
405.392
405.13
404.86
404.597
404.324
404.059
403.785
403.515
403.249
402.968
402.71
402.425
402.162
401.887
401.609
401.346
401.057
400.795
400.506
400.236
399.951
399.654
399.382
399.064
398.778
398.464
398.126
397.803
397.471
397.056
396.712
396.279
395.769
395.37
394.777
394.191
393.597
392.829
392.012
391.177
390.134
389.005
387.77
386.248
384.543
382.729
380.191
377.943
374.34
371.096
366.173
360.993
353.521
344.96
333.544
321.587
413.522
412.514
411.621
410.937
410.482
410.173
409.929
409.707
409.463
409.223
408.97
408.719
408.47
408.214
407.968
407.713
407.464
407.211
406.955
406.7
406.44
406.18
405.917
405.654
405.388
405.122
404.853
404.585
404.312
404.045
403.767
403.501
403.222
402.952
402.678
402.401
402.132
401.851
401.583
401.3
401.029
400.752
400.462
400.202
399.891
399.632
399.325
399.021
398.742
398.399
398.085
397.769
397.376
397.024
396.651
396.164
395.768
395.264
394.677
394.137
393.495
392.673
392.001
390.982
390.04
388.816
387.651
385.925
384.508
382.225
380.163
377.318
374.294
370.158
365.898
359.345
351.976
341.166
325.359
303.267
407.069
406.62
405.977
405.097
404.034
402.864
401.537
400.042
398.646
397.957
398.337
399.646
401.675
404.296
407.508
411.047
414.105
416.218
417.69
418.44
406.058
406.338
406.303
405.536
404.302
402.827
401.082
399.171
397.478
396.696
397.13
398.585
400.789
403.511
406.737
410.342
413.551
415.726
417.238
418.139
408.192
408.54
407.663
406.106
404.424
402.586
400.388
397.879
395.682
394.628
395.037
396.7
399.14
402.033
405.326
409.14
412.787
415.137
416.549
417.601
406.897
406.723
406.548
406.166
405.012
402.539
399.34
396.12
393.456
392.153
392.491
394.223
396.881
400.117
403.738
407.972
412.142
414.668
415.832
416.89
404.994
404.992
404.907
404.36
402.94
400.683
397.869
394.821
392.202
390.86
391.096
393.027
395.909
399.536
403.586
408.234
412.424
414.617
415.648
417.192
402.457
402.462
402.278
401.669
400.475
398.703
396.468
394.154
392.287
391.497
392.102
394.096
397.246
401.145
405.423
410.006
413.846
415.564
416.32
418.785
399.488
399.426
399.215
398.748
397.96
396.856
395.585
394.41
393.696
393.838
395.075
397.471
400.846
404.91
409.226
413.189
415.607
416.184
416.78
419.079
396.272
396.189
396.045
395.827
395.529
395.178
394.902
394.887
395.34
396.497
398.577
401.456
404.899
408.771
413.072
417.514
420.432
422.098
423.069
425.559
392.91
392.837
392.836
392.911
393.091
393.448
394.02
394.95
396.438
398.539
401.427
405.509
410.925
416.632
421.5
421.032
415.681
414.083
418.026
424.629
389.36
389.32
389.456
389.826
390.431
391.345
392.664
394.396
396.665
399.648
403.149
406.645
409.965
413.162
416.017
417.393
417.958
421.358
429.149
435.864
385.508
385.474
385.727
386.328
387.326
388.747
390.621
393.055
395.975
399.408
403.579
408.368
413.201
417.37
419.615
421.179
424.334
428.105
430.604
431.68
381.203
381.129
381.453
382.242
383.555
385.45
387.943
390.958
394.391
398.012
401.688
405.629
409.94
414.192
418.063
422.17
426.447
429.646
431.898
433.494
376.29
376.058
376.426
377.389
379.023
381.341
384.344
388
392.25
396.839
401.424
405.622
408.876
412.37
416.973
422.149
426.602
429.767
431.56
432.3
370.531
370.088
370.318
371.476
373.517
376.439
380.045
383.899
387.97
392.328
396.901
402.031
407.253
412.659
417.848
422.318
426.094
429.141
431.117
432.129
363.647
362.808
362.916
364.085
366.628
370.432
375.216
380.351
385.153
389.25
392.913
397.833
403.787
409.662
414.735
419.222
423.374
426.851
429.246
430.47
355.225
353.737
353.692
355.079
358.072
362.493
367.766
373.164
378.628
384.507
390.522
396.124
401.45
406.675
411.595
416.03
420.068
423.572
426.038
427.268
344.551
341.656
341.115
343.766
349.143
355.398
361.592
366.658
370.459
376.374
384.363
391.594
397.519
402.688
407.542
411.9
415.775
419.142
421.559
422.813
331.229
326.262
324.081
326.668
334.315
343.555
352.679
360.575
367.125
373.183
379.416
385.782
391.601
397.02
402.16
406.69
410.552
413.771
416.089
417.343
309.994
303.537
304.503
312.133
321.628
331.197
340.107
348.85
357.881
366.687
374.163
380.357
385.827
391.121
396.245
400.78
404.575
407.66
409.852
411.035
274.142
256.553
265.193
286.652
307.491
323.37
333.417
340.405
348.205
357.485
366.312
373.588
379.348
384.591
389.601
394.065
397.798
400.782
402.871
403.975
234.301
210.857
228.783
255.011
283.093
307.395
323.93
333.57
340.918
349.148
357.842
365.493
371.8
377.33
382.348
386.772
390.447
393.328
395.278
396.259
226.191
211.91
223.544
237.553
265.394
291.408
310.77
323.373
332.781
341.625
350.005
357.233
363.538
369.201
374.294
378.735
382.379
385.181
387.063
388.023
230.946
226.13
221.416
230.843
262.936
285.519
299.594
311.145
322.245
332.841
341.865
348.929
355.094
360.702
365.692
370.02
373.618
376.427
378.281
379.167
241.727
234.517
233.878
244.185
272.55
288.422
294.61
301.504
312.373
323.771
333.129
339.991
345.965
351.55
356.531
360.767
364.266
367.009
368.858
369.821
250.598
249.201
245.033
255.222
275.25
287.452
293.719
293.918
303.324
314.626
323.818
330.449
336.228
341.742
346.719
350.895
354.348
357.114
358.998
359.875
253.147
248.148
248.808
257.605
271.943
279.999
286.338
285.395
294.671
304.573
313.223
319.891
325.715
331.304
336.413
340.677
344.116
346.766
348.531
349.428
246.694
242.337
244.279
254.512
266.317
270.495
272.268
282.544
285.401
292.025
300.372
307.722
314.051
319.994
325.403
329.87
333.392
336.091
337.888
338.702
240.385
235.866
237.517
247.464
258.414
264.655
267.966
280.995
274.957
278.421
286.139
294.107
301.296
307.814
313.61
318.396
322.158
324.961
326.772
327.67
233.321
226.377
228.415
238.684
249.466
259.65
262.168
263.995
265.12
265.323
271.122
279.553
287.832
295.123
301.369
306.451
310.425
313.441
315.456
316.421
229.399
222.87
222.003
231.132
240.674
247.888
251.179
252.118
253.243
251.447
255.734
264.52
273.893
282.143
288.983
294.379
298.573
301.763
303.902
304.963
229.619
227.481
223.362
224.26
229.214
232.879
235.244
236.821
237.508
235.995
240.097
249.511
259.894
269.05
276.54
282.372
286.858
290.278
292.575
293.694
235.057
227.713
222.425
215.75
214.67
214.841
215.483
217.589
218.871
218.819
223.896
234.561
246.072
256.056
264.156
270.522
275.479
279.173
281.607
282.795
248.664
231.047
216.071
203.286
197.528
194.627
193.389
196.464
199.432
200.941
207.461
219.709
232.506
243.336
252.062
259.011
264.46
268.525
271.207
272.549
247.55
227.272
204.039
187.329
178.86
173.955
172.191
175.582
179.814
183.154
191.318
205.096
219.254
231.122
240.591
248.168
254.116
258.512
261.46
262.959
227.917
210.068
186.55
169.733
159.634
153.625
152.13
155.964
161.275
166.202
175.972
191.24
206.685
219.644
230.014
238.255
244.638
249.389
252.644
254.319
202.235
187.957
167.069
151.337
140.545
134.485
133.637
137.718
144.253
150.798
162.047
178.736
195.314
209.301
220.513
229.455
236.362
241.449
244.952
246.744
176.835
164.988
147.688
133.799
123.04
117.46
117.245
121.552
129.36
137.322
150.055
168.175
185.596
200.35
212.291
221.887
229.319
234.843
238.695
240.652
154.578
144.952
130.571
118.225
108.143
103.505
103.517
108.142
117.545
126.55
140.726
159.908
177.827
193.101
205.635
215.869
223.85
229.735
233.86
235.919
136.661
128.64
116.773
105.991
96.6735
92.8484
92.9128
98.1861
109.11
118.829
134.521
154.144
172.211
187.849
200.88
211.533
219.886
226.215
230.701
232.979
123.998
117.138
106.971
97.4054
89.0175
85.6613
85.8793
92.1214
103.762
114.14
131.136
150.615
168.902
184.86
198.191
209.158
217.887
224.546
229.241
231.574
116.465
110.595
101.749
93.0935
85.3961
82.506
82.7898
89.9684
101.302
112.864
130.07
149.564
167.94
184.037
197.533
208.639
217.589
224.571
229.574
232.259
114.299
109.043
101.071
93.3427
86.0206
83.31
83.9424
91.4032
102.203
114.779
131.884
151.09
169.238
185.185
198.665
209.98
219.31
226.664
231.985
234.644
117.04
112.235
105.065
97.7445
91.0977
88.1018
89.2317
96.4559
106.662
119.655
136.722
155.301
172.762
188.191
201.504
212.933
222.492
230.168
235.957
239.25
124.171
119.771
113.289
106.496
100.304
97.104
98.4982
105.339
114.838
127.547
144.115
161.695
178.165
192.83
205.785
217.277
227.224
235.54
242.046
245.377
135
131.083
125.299
119.158
113.365
110.12
111.509
117.753
126.312
138.165
153.586
169.856
185.094
198.86
211.358
222.736
232.871
241.707
249.055
253.437
148.799
145.367
140.33
134.843
129.652
126.473
127.607
132.834
140.186
150.862
164.693
179.287
193.123
205.814
217.512
228.559
239.083
248.999
257.798
262.579
164.872
161.898
157.399
152.638
148.026
144.878
145.518
149.527
155.463
164.675
176.762
189.596
201.835
213.197
223.951
234.548
245.282
256.045
266.295
272.893
182.237
179.643
175.797
171.663
167.564
164.439
164.254
166.838
171.278
178.958
189.35
200.216
210.652
220.581
230.155
239.894
250.529
262.58
275.391
283.194
200.233
197.878
194.416
190.688
186.958
183.883
182.94
184.111
187.108
193.182
201.839
210.654
219.106
227.442
235.784
244.595
254.589
266.875
281.029
292.623
218.376
216.033
212.465
208.884
205.387
202.266
200.678
200.632
202.322
206.831
213.755
220.43
226.877
233.685
240.718
248.201
256.604
267.634
283.805
297.976
236.338
233.804
229.924
226.033
222.477
219.194
216.997
215.993
216.592
219.623
224.651
229.335
233.941
239.049
244.444
250.427
256.998
264.369
274.45
288.837
253.826
251.011
246.635
242.141
238.137
234.591
231.896
230.197
229.854
231.529
234.701
237.427
240.122
243.312
246.879
251.148
255.299
257.019
253.386
268.318
270.723
267.655
262.566
257.308
252.737
248.775
245.616
243.403
242.378
242.869
244.107
244.816
245.594
246.685
247.993
249.833
251.67
252.317
247.971
252.638
287.219
283.852
278.09
271.942
266.703
262.223
258.618
255.967
254.269
253.579
253.047
251.787
250.562
249.545
248.459
247.626
247.514
249.445
252.178
243.889
303.263
299.676
293.384
286.449
280.439
275.421
271.292
268.03
265.586
263.714
261.438
258.326
255.386
252.395
248.912
245.61
243.024
242.957
252.757
242.051
318.158
314.742
308.397
300.947
294.262
288.621
283.889
279.9
276.454
273.156
269.312
264.748
260.286
255.373
249.762
244.324
239.316
235.79
245.274
240.796
331.713
328.492
322.449
314.976
307.938
301.769
296.38
291.438
286.731
282.08
276.905
271.158
265.381
258.743
251.25
243.808
236.75
231.536
235.608
237.359
343.206
340.387
334.863
327.756
320.73
314.158
308.033
302.165
296.262
290.322
284.14
277.626
270.721
262.586
253.519
244.148
234.863
228.223
227.694
232.897
351.968
349.61
344.854
338.379
331.56
324.782
318.069
311.412
304.536
297.744
290.973
283.874
276.077
266.912
256.673
245.532
234.137
226.867
225.269
231.114
357.866
356.017
351.998
346.194
339.703
332.977
325.835
318.686
311.464
304.198
297.049
289.647
281.355
271.65
260.775
248.606
235.94
228.77
227.783
232.846
361.175
359.723
356.317
351.159
345.059
338.547
331.425
324.145
316.904
309.647
302.49
294.926
286.402
276.716
265.922
253.699
241.048
234.644
234.172
238.475
362.361
361.186
358.269
353.689
347.993
341.905
335.163
328.022
321.15
314.267
307.197
299.738
291.398
282.119
271.935
260.682
249.453
243.917
243.619
246.892
362.058
361.076
358.511
354.432
349.229
343.544
337.45
330.881
324.393
318.021
311.39
304.24
296.346
287.843
278.767
268.818
259.985
255.426
255.404
257.523
360.867
360.012
357.72
354.082
349.372
344.186
338.768
332.884
326.934
321.153
315.033
308.376
301.237
293.741
285.971
277.965
271.391
267.821
267.756
269.325
359.283
358.518
356.446
353.171
348.994
344.302
339.475
334.402
329.004
323.662
318.234
312.284
305.936
299.572
293.295
287.139
282.231
279.514
279.475
280.479
357.673
356.978
355.085
352.135
348.406
344.238
339.946
335.503
330.787
325.922
321.044
315.842
310.461
305.156
300.131
295.546
292.146
290.401
290.532
291.457
356.292
355.644
353.907
351.2
347.836
344.118
340.285
336.408
332.301
327.867
323.536
319.088
314.501
310.22
306.338
302.889
300.531
299.571
300.165
300.635
355.277
354.676
353.03
350.492
347.397
344.045
340.626
337.113
333.513
329.635
325.725
321.86
318.087
314.559
311.503
308.994
307.515
307.123
307.423
308.024
354.695
354.083
352.5
350.075
347.155
344.018
340.888
337.782
334.493
330.973
327.577
324.278
320.967
318.094
315.772
313.923
313.065
313.259
314.144
314.716
354.58
353.905
352.273
349.935
347.064
344.088
341.197
338.289
335.3
332.173
329.04
326.178
323.446
320.965
319.12
317.88
317.424
317.771
318.351
318.473
354.909
354.157
352.425
349.978
347.119
344.208
341.409
338.751
335.963
333.037
330.231
327.691
325.268
323.227
321.777
320.848
320.725
321.334
322.211
323.214
355.625
354.737
352.791
350.201
347.246
344.325
341.593
338.989
336.469
333.857
331.118
328.748
326.737
324.918
323.703
323.077
323.051
323.604
324.428
324.253
356.73
355.575
353.256
350.423
347.372
344.374
341.607
339.166
336.765
334.272
331.813
329.541
327.612
326.075
325.033
324.427
324.461
325.027
325.671
326.296
357.936
356.451
353.644
350.577
347.391
344.344
341.582
339.113
336.867
334.623
332.132
329.96
328.228
326.713
325.705
325.204
325.14
325.521
326.235
326.198
359.017
356.828
353.587
350.444
347.28
344.22
341.439
339.041
336.768
334.546
332.301
330.141
328.306
326.961
325.929
325.267
325.168
325.467
325.798
326.456
359.261
356.495
352.901
349.88
346.888
343.957
341.215
338.733
336.524
334.424
332.095
329.987
328.231
326.729
325.62
324.949
324.62
324.727
325.219
324.98
357.2
354.258
351.428
348.952
346.295
343.525
340.828
338.393
336.082
333.938
331.836
329.621
327.659
326.234
324.937
324.019
323.625
323.563
323.587
324.377
352.55
349.561
348.997
347.677
345.481
342.946
340.325
337.8
335.566
333.415
331.141
328.948
326.989
325.231
323.833
322.801
322.071
321.851
322.049
321.443
347.786
345.929
347.058
346.326
344.485
342.161
339.663
337.234
334.85
332.646
330.494
328.072
325.849
324.079
322.331
321.035
320.155
319.569
319.15
320.163
345.361
345.512
346.401
345.343
343.503
341.353
338.949
336.479
334.187
331.841
329.392
326.996
324.62
322.369
320.532
318.888
317.641
316.967
316.919
315.985
345.32
347.267
346.48
344.793
342.876
340.687
338.287
335.853
333.319
330.914
328.463
325.684
323.006
320.638
318.177
316.318
314.706
313.559
312.358
313.545
346.516
348.995
346.386
344.541
342.557
340.294
337.8
335.217
332.678
329.951
327.159
324.373
321.328
318.317
315.73
313.047
311.093
309.58
308.935
307.691
346.892
348.252
345.874
344.503
342.495
340.039
337.445
334.712
331.823
329.049
326.088
322.741
319.403
316.078
312.466
309.511
306.619
304.58
302.115
303.394
346.114
345.563
345.323
344.449
342.406
339.9
337.124
334.216
331.304
328.09
324.848
321.415
317.431
313.346
309.435
305.02
301.539
298.394
296.499
294.235
345.175
343.592
345.387
344.368
342.3
339.673
336.845
333.82
330.64
327.477
323.839
319.741
315.493
310.687
305.414
300.435
295.033
290.9
285.839
286.835
344.483
343.358
346.024
344.091
342.056
339.509
336.524
333.479
330.284
326.7
322.996
318.712
313.516
307.98
301.838
294.767
287.99
281.218
276.202
270.932
343.969
343.651
345.823
343.753
341.84
339.209
336.283
333.196
330.02
326.646
322.372
317.563
312.156
305.331
297.703
289.28
279.404
269.554
257.704
255.862
343.183
343.224
344.382
343.267
341.496
338.895
335.901
333.071
330.036
326.464
322.461
317.253
310.706
303.389
293.965
282.955
270.179
255.359
239.293
223.141
342.196
342.218
342.445
342.519
340.606
338.015
335.498
332.992
330.467
327.202
322.723
317.559
310.611
301.469
290.892
277.298
260.147
239.793
208.176
181.109
341.082
340.885
340.501
340.735
338.622
336.565
334.812
333.352
331.317
328.52
324.664
318.713
311.082
301.445
288.363
272.491
250.614
222.944
183.449
96.3338
339.456
339.037
337.943
337.59
335.588
334.468
334.216
333.965
333.09
330.735
326.681
321.389
312.818
301.65
287.461
268.843
242.446
205.204
158.314
6.16662
337.192
336.327
334.81
333.231
332.229
332.351
333.757
335.442
335.485
334.48
330.648
324.542
316.135
304.14
287.668
266.705
242.3
189.29
144.325
41.0441
335.057
333.687
331.599
329.442
328.778
330.49
333.827
337.481
340.021
338.866
336.17
329.951
320.07
306.539
294.746
262.039
248.735
191.967
141.818
85.6566
334.335
332.482
329.884
327.316
327.15
330.023
335.376
339.92
347.316
343.889
344.972
331.572
332.768
303.389
304.683
262.479
244.253
204.392
149.808
112.826
334.897
333.08
329.874
325.918
326.862
331.015
338.179
341.471
358.759
341.947
359.676
328.105
339.075
303.12
299.06
265.111
235.297
213.67
165.721
129.144
336.685
335.166
332.233
329.8
330.407
334.521
343.741
341.859
368.924
339.715
362.385
324.477
328.017
298.152
277.944
263.347
235.862
223.597
188.568
149.068
340.455
337.806
334.157
331.685
334.237
339.714
346.545
345.288
365.48
337.446
332.358
315.135
303.09
294.176
278.974
280.053
258.577
237.876
208.018
170.206
348.245
345.892
342.169
340.335
342.647
348.917
352.233
353.339
334.163
332.46
320.554
322.764
311.866
323.126
306.925
299.972
276.549
248.846
218.988
183.746
350.927
348.933
347.364
346.703
348.264
343.986
350.915
365.972
309.909
362.158
337.601
364.462
342.849
345.584
323.292
305.265
281.988
253.441
222.819
189.276
356.503
353.051
349.918
349.934
354.746
357.288
349.775
387.27
362.855
409.858
355.795
391.949
344.913
350.118
328.03
305.19
281.796
254.62
224.347
191.653
-220.261
-95.124
-230.015
-272.812
-221.841
-199.871
-211.686
-203.716
-195.254
-208.152
-204.665
-202.369
-200.317
-197.172
-193.828
-193.347
-195.911
-201.227
-209.436
-220.236
-233.07
-246.513
-259.868
-272.655
-284.145
-293.486
-300.838
-306.058
-308.572
-307.654
-304.197
-298.507
-289.679
-276.991
-261.227
-242.775
-221.412
-198.011
-172.928
-146.92
-122.368
-97.9664
-72.4248
-52.4252
-35.6152
-19.6693
-9.16904
-1.09618
3.9515
6.35154
6.71691
5.66223
3.84955
1.74051
-0.252943
-1.84041
-3.00131
-3.70403
-4.14162
-4.40896
-4.53043
-4.48102
-4.35863
-4.25641
-4.15106
-4.09617
-4.05665
-4.07414
-4.10366
-4.08205
-4.01464
-3.80352
-3.50817
-3.08319
-2.51855
-1.92076
-1.27594
-0.757515
-0.365308