/*--------------------------------*- C++ -*----------------------------------*\
| =========                 |                                                 |
| \\      /  F ield         | OpenFOAM: The Open Source CFD Toolbox           |
|  \\    /   O peration     | Version:  2306                                  |
|   \\  /    A nd           | Website:  www.openfoam.com                      |
|    \\/     M anipulation  |                                                 |
\*---------------------------------------------------------------------------*/
FoamFile
{
    version     2.0;
    format      ascii;
    arch        "LSB;label=32;scalar=64";
    class       surfaceScalarField;
    location    "0.1";
    object      phi;
}
// * * * * * * * * * * * * * * * * * * * * * * * * * * * * * * * * * * * * * //

dimensions      [0 3 -1 0 0 0 0];

oriented        oriented;

internalField   nonuniform List<scalar> 
8520
(
0.00992785
7.21463e-05
0.00978964
0.000138211
0.00962955
0.000160093
0.00946835
0.000161199
0.00930956
0.000158793
0.00914933
0.000160224
0.00898659
0.000162738
0.00882128
0.000165313
0.00865409
0.000167191
0.00848616
0.000167936
0.00831855
0.000167607
0.00815193
0.000166623
0.00798661
0.000165314
0.00782268
0.000163936
0.00766016
0.00016252
0.00749914
0.000161013
0.00733968
0.000159459
0.00718193
0.000157754
0.00702593
0.000156
0.00687183
0.000154101
0.0067198
0.000152029
0.00656977
0.000150033
0.00642203
0.000147733
0.00627657
0.00014546
0.00613342
0.000143154
0.00599282
0.000140601
0.00585469
0.000138126
0.00571925
0.000135439
0.00558645
0.000132804
0.00545654
0.000129906
0.00532946
0.000127087
0.00520512
0.000124335
0.00508393
0.000121191
0.00496547
0.000118461
0.00485001
0.000115458
0.00473763
0.000112383
0.00462812
0.000109503
0.00452168
0.000106442
0.00441798
0.000103707
0.00431734
0.000100636
0.00421936
9.79841e-05
0.00412384
9.55194e-05
0.00403091
9.29279e-05
0.00394016
9.07539e-05
0.00385175
8.8407e-05
0.00376501
8.67394e-05
0.0036799
8.51118e-05
0.00359574
8.41567e-05
0.00351245
8.32952e-05
0.00342925
8.31914e-05
0.00334578
8.34763e-05
0.0032612
8.45804e-05
0.00317455
8.6647e-05
0.00308519
8.9357e-05
0.00299127
9.39243e-05
0.00289205
9.92221e-05
0.00278558
0.000106463
0.00267075
0.000114837
0.00254507
0.000125675
0.00240618
0.000138893
0.0022512
0.000154978
0.00207693
0.000174274
0.00187972
0.000197204
0.00165551
0.000224215
0.00139985
0.000255654
0.00110883
0.000291021
0.000778409
0.000330423
0.000406064
0.000372346
-1.04797e-05
0.000416543
-0.000477505
0.000467026
-0.000989175
0.000511669
-0.00152072
0.000531543
-0.00199383
0.000473116
-0.00230105
0.000307217
-0.002375
7.39518e-05
-0.0022546
-0.000120404
-0.00199761
-0.000256988
-0.00169166
-0.000305952
-0.00144457
-0.00024709
-0.00012793
-0.00131664
0.0100357
3.64214e-05
0.0100798
9.40926e-05
0.0101109
0.00012908
0.0101273
0.000144773
0.0101359
0.000150223
0.0101432
0.000152829
0.0101495
0.000156451
0.0101535
0.00016136
0.010154
0.000166665
0.0101507
0.000171256
0.0101436
0.00017469
0.0101331
0.000177145
0.0101198
0.000178652
0.0101039
0.00017983
0.0100857
0.000180671
0.0100654
0.000181333
0.0100429
0.000181965
0.0100184
0.000182264
0.00999174
0.000182629
0.00996325
0.000182592
0.00993283
0.000182452
0.00990063
0.000182228
0.00986677
0.000181596
0.00983115
0.000181076
0.00979415
0.000180161
0.00975548
0.000179265
0.00971548
0.000178131
0.00967416
0.000176759
0.00963146
0.000175506
0.00958759
0.000173773
0.00954253
0.00017214
0.00949636
0.00017051
0.00944909
0.000168466
0.00940081
0.000166733
0.00935148
0.000164788
0.0093012
0.000162663
0.00924988
0.000160828
0.00919788
0.000158437
0.00914473
0.000156863
0.00909064
0.000154726
0.00903563
0.00015299
0.00897953
0.000151623
0.00892238
0.000150079
0.00886396
0.000149172
0.00880415
0.00014822
0.00874309
0.0001478
0.0086801
0.000148095
0.00861532
0.000148943
0.00854838
0.000150233
0.00847856
0.000153007
0.0084062
0.000155836
0.00832974
0.000161044
0.00824974
0.000166642
0.00816445
0.000174649
0.00807348
0.000184896
0.00797574
0.000196965
0.00786992
0.000212277
0.00775523
0.000229532
0.00762919
0.000251712
0.00749073
0.000277355
0.00733691
0.000308795
0.00716596
0.000345224
0.00697522
0.000387944
0.00676153
0.000437909
0.00652222
0.000494962
0.00625316
0.000560084
0.00595142
0.000632161
0.00561288
0.000710888
0.00523434
0.000795086
0.00482062
0.000880738
0.004373
0.000959295
0.00389152
0.00101302
0.00335251
0.00101213
0.00269683
0.000962898
0.0018681
0.000902674
0.000875697
0.000872005
-0.000281311
0.00090002
-0.00146498
0.000877716
-0.00240355
0.000691483
0.000358696
-0.00289018
0.0100142
2.2232e-05
0.010044
6.42408e-05
0.0100778
9.53136e-05
0.0101074
0.000115204
0.0101314
0.000126201
0.0101523
0.000131918
0.0101731
0.000135619
0.0101952
0.000139274
0.0102182
0.000143714
0.0102412
0.000148234
0.0102636
0.000152328
0.0102849
0.000155827
0.0103052
0.000158351
0.0103246
0.000160429
0.0103433
0.000161944
0.0103615
0.000163189
0.010379
0.000164415
0.010396
0.000165271
0.0104123
0.000166347
0.0104279
0.000166999
0.0104427
0.000167625
0.0104566
0.000168288
0.0104699
0.00016834
0.010482
0.00016892
0.0104935
0.00016868
0.010504
0.000168829
0.0105134
0.000168725
0.0105221
0.000168067
0.0105293
0.000168224
0.010536
0.000167135
0.0105412
0.000166932
0.0105456
0.000166132
0.0105487
0.000165357
0.0105505
0.000164913
0.0105514
0.000163865
0.0105507
0.000163379
0.0105489
0.000162623
0.0105457
0.000161692
0.0105412
0.000161356
0.010535
0.000160926
0.0105275
0.000160479
0.0105181
0.000160979
0.0105074
0.000160831
0.0104945
0.000162007
0.0104797
0.000163093
0.0104631
0.000164365
0.0104437
0.00016745
0.0104226
0.000170122
0.0103982
0.000174634
0.010371
0.0001802
0.0103407
0.000186099
0.0103062
0.000195537
0.0102687
0.000204161
0.0102257
0.000217683
0.0101788
0.000231739
0.0101255
0.000250282
0.0100665
0.000271228
0.0100001
0.000295955
0.00992592
0.000325917
0.00984266
0.000360613
0.00974921
0.000402239
0.00964478
0.000449657
0.00952742
0.000505306
0.00939637
0.000568957
0.00924935
0.000641978
0.00908507
0.000724365
0.00890184
0.00081539
0.00869754
0.000915195
0.00847185
0.00102078
0.00822392
0.00112866
0.00795091
0.00123231
0.00764277
0.00132116
0.00726308
0.00139181
0.00678245
0.00144353
0.00619205
0.00149308
0.00552102
0.00154303
0.0048147
0.00160633
0.00405465
0.00163777
0.00311238
0.00163375
0.00158107
0.00189001
0.010007
1.52746e-05
0.0100267
4.44632e-05
0.0100519
7.01428e-05
0.010077
9.01509e-05
0.0101004
0.0001028
0.0101223
0.000109965
0.0101432
0.00011472
0.0101644
0.000118093
0.0101866
0.000121555
0.0102098
0.00012495
0.0102336
0.000128599
0.0102575
0.000131924
0.0102812
0.000134645
0.0103046
0.000137008
0.010328
0.000138567
0.0103511
0.000140083
0.0103744
0.00014112
0.0103975
0.000142113
0.0104208
0.000143109
0.010444
0.000143791
0.010467
0.000144612
0.01049
0.00014528
0.0105126
0.000145713
0.0105352
0.000146349
0.0105573
0.000146582
0.0105793
0.000146853
0.0106007
0.000147319
0.0106219
0.000146842
0.0106425
0.00014765
0.0106627
0.000146912
0.0106824
0.00014727
0.0107013
0.000147232
0.0107199
0.000146679
0.0107372
0.000147623
0.0107546
0.000146469
0.0107703
0.000147679
0.0107858
0.000147138
0.0107999
0.00014761
0.0108132
0.000148087
0.0108253
0.000148745
0.0108362
0.000149592
0.0108459
0.000151304
0.0108543
0.000152415
0.010861
0.0001553
0.0108663
0.00015785
0.0108699
0.000160771
0.0108712
0.000166086
0.0108714
0.00016999
0.0108682
0.000177764
0.0108639
0.000184538
0.0108558
0.000194184
0.0108458
0.000205506
0.0108324
0.000217646
0.0108158
0.000234194
0.0107958
0.000251816
0.0107716
0.000274445
0.0107433
0.000299494
0.0107104
0.000328928
0.0106724
0.000363843
0.010629
0.000404053
0.0105798
0.000451476
0.0105244
0.000505042
0.0104624
0.00056733
0.0103935
0.000637835
0.0103171
0.000718358
0.0102332
0.000808234
0.0101413
0.000907289
0.0100407
0.00101587
0.00993145
0.00112998
0.00980938
0.00125073
0.00967152
0.00137017
0.00950242
0.00149026
0.00928697
0.00160726
0.00901209
0.0017184
0.00867479
0.00183038
0.00828182
0.001936
0.0078363
0.00205185
0.00731216
0.00216191
0.00666868
0.00227724
0.00235178
0.00589797
0.0100043
1.0944e-05
0.0100166
3.22146e-05
0.010035
5.16814e-05
0.0100563
6.89311e-05
0.0100781
8.09769e-05
0.0100989
8.9124e-05
0.0101194
9.42814e-05
0.0101398
9.76485e-05
0.0101609
0.000100509
0.0101828
0.000102981
0.0102054
0.000106017
0.0102286
0.000108735
0.010252
0.000111233
0.0102754
0.000113576
0.010299
0.000115028
0.0103223
0.00011674
0.0103459
0.000117576
0.0103694
0.000118536
0.010393
0.000119536
0.0104169
0.000119877
0.0104405
0.000121025
0.0104645
0.000121285
0.0104881
0.000122121
0.0105118
0.000122635
0.0105354
0.00012296
0.0105586
0.000123663
0.0105821
0.000123851
0.0106048
0.000124133
0.0106277
0.00012471
0.01065
0.000124662
0.0106722
0.000125076
0.0106938
0.00012564
0.0107151
0.000125343
0.0107358
0.00012695
0.0107561
0.000126146
0.0107757
0.000128113
0.0107946
0.000128233
0.010813
0.00012923
0.0108301
0.000130914
0.010847
0.00013186
0.0108625
0.000134158
0.0108772
0.000136516
0.0108909
0.000138805
0.010903
0.000143116
0.0109143
0.00014655
0.010924
0.000151148
0.0109321
0.000157937
0.010939
0.000163105
0.0109435
0.000173227
0.0109471
0.000180951
0.0109476
0.000193679
0.0109471
0.000206072
0.0109432
0.000221496
0.010938
0.000239426
0.0109293
0.000260533
0.0109184
0.00028527
0.0109042
0.000313704
0.0108873
0.000345805
0.0108672
0.000383994
0.0108437
0.000427506
0.0108171
0.000478077
0.0107871
0.000535064
0.0107542
0.000600229
0.010718
0.000674018
0.0106794
0.000756965
0.0106381
0.000849576
0.0105945
0.000950918
0.0105485
0.00106185
0.0104987
0.00117972
0.0104433
0.00130621
0.0103776
0.0014358
0.010293
0.00157487
0.0101878
0.00171248
0.0100463
0.00185995
0.00987564
0.00200101
0.0096558
0.00215584
0.00939774
0.00230992
0.00907936
0.00248029
0.00870954
0.00264705
0.00279819
0.00826313
0.010003
7.96243e-06
0.0100118
2.33995e-05
0.0100256
3.7876e-05
0.0100431
5.14523e-05
0.0100626
6.14977e-05
0.0100824
6.92905e-05
0.0101025
7.41357e-05
0.0101225
7.76445e-05
0.0101429
8.01831e-05
0.0101639
8.19233e-05
0.0101856
8.43685e-05
0.0102082
8.61349e-05
0.0102308
8.8608e-05
0.010254
9.03544e-05
0.0102772
9.18696e-05
0.0103004
9.35095e-05
0.0103239
9.41253e-05
0.0103471
9.52799e-05
0.0103708
9.58813e-05
0.0103942
9.64089e-05
0.010418
9.7309e-05
0.0104416
9.76252e-05
0.0104653
9.84682e-05
0.0104889
9.90512e-05
0.0105125
9.93122e-05
0.0105357
0.00010046
0.0105592
0.000100354
0.0105821
0.000101242
0.010605
0.000101801
0.0106277
0.000101955
0.0106497
0.000103051
0.0106721
0.000103256
0.0106932
0.000104221
0.0107148
0.00010537
0.0107353
0.000105703
0.0107556
0.000107793
0.0107751
0.000108724
0.0107942
0.00011015
0.0108123
0.000112825
0.01083
0.000114117
0.0108465
0.000117618
0.0108624
0.000120626
0.0108776
0.00012362
0.0108909
0.000129872
0.0109045
0.000132901
0.0109152
0.000140407
0.0109263
0.000146884
0.0109349
0.00015452
0.0109426
0.000165521
0.0109489
0.00017469
0.0109531
0.000189447
0.0109559
0.000203231
0.0109567
0.000220674
0.0109558
0.000240361
0.0109531
0.000263248
0.0109479
0.000290491
0.0109413
0.000320328
0.0109318
0.000355244
0.0109209
0.000394865
0.0109077
0.000440756
0.0108925
0.000493223
0.010876
0.000551647
0.0108575
0.000618723
0.0108384
0.000693047
0.010818
0.000777368
0.0107976
0.000870021
0.0107766
0.000971929
0.0107549
0.00108357
0.0107322
0.00120241
0.0107052
0.00133316
0.0106735
0.00146756
0.0106321
0.00161625
0.0105785
0.00176602
0.010509
0.00192947
0.010416
0.00209406
0.0102988
0.00227304
0.0101516
0.00245708
0.0099769
0.002655
0.00976986
0.00285409
0.00305062
0.00951743
0.0100023
5.6846e-06
0.0100093
1.63557e-05
0.0100204
2.67925e-05
0.0100352
3.66599e-05
0.0100525
4.41978e-05
0.010071
5.08031e-05
0.0100905
5.45911e-05
0.0101101
5.80508e-05
0.0101303
6.00391e-05
0.0101508
6.13642e-05
0.0101719
6.33369e-05
0.0101939
6.40583e-05
0.010216
6.6585e-05
0.0102388
6.74687e-05
0.0102617
6.90085e-05
0.0102847
7.05166e-05
0.0103082
7.06344e-05
0.0103311
7.23746e-05
0.0103549
7.20887e-05
0.010378
7.32805e-05
0.0104017
7.36677e-05
0.0104253
7.39994e-05
0.0104485
7.52049e-05
0.0104724
7.51927e-05
0.0104955
7.61825e-05
0.0105191
7.69394e-05
0.0105422
7.7172e-05
0.0105652
7.82956e-05
0.0105882
7.88267e-05
0.0106107
7.94522e-05
0.0106329
8.07844e-05
0.0106552
8.10178e-05
0.0106765
8.2929e-05
0.0106981
8.37139e-05
0.0107187
8.51368e-05
0.0107391
8.73307e-05
0.010759
8.88151e-05
0.0107781
9.11067e-05
0.010797
9.39567e-05
0.0108147
9.64112e-05
0.010832
0.000100239
0.0108483
0.000104353
0.0108642
0.000107746
0.0108783
0.00011574
0.0108929
0.000118354
0.0109046
0.000128672
0.0109171
0.000134365
0.0109268
0.000144821
0.0109365
0.000155865
0.0109444
0.000166776
0.0109509
0.000182933
0.0109563
0.000197867
0.0109599
0.000217054
0.0109624
0.000237895
0.0109631
0.000262489
0.0109625
0.000291087
0.0109605
0.000322388
0.0109567
0.000359013
0.010952
0.000399573
0.0109457
0.000447014
0.0109386
0.000500317
0.0109307
0.000559541
0.0109221
0.000627392
0.0109135
0.000701651
0.0109047
0.000786101
0.010896
0.000878749
0.0108879
0.000980058
0.0108793
0.00109214
0.0108693
0.00121246
0.0108588
0.00134366
0.0108412
0.0014851
0.0108233
0.0016342
0.0107914
0.00179786
0.0107558
0.00196515
0.0106996
0.00215023
0.0106332
0.00233941
0.0105452
0.00254513
0.0104432
0.00275698
0.0103199
0.00297741
0.00320134
0.0101692
0.0100019
3.83147e-06
0.0100081
1.01396e-05
0.0100174
1.74325e-05
0.0100306
2.3537e-05
0.0100461
2.86219e-05
0.0100634
3.3485e-05
0.0100824
3.56833e-05
0.0101014
3.9042e-05
0.0101216
3.97584e-05
0.0101417
4.12892e-05
0.0101627
4.23586e-05
0.0101841
4.26103e-05
0.0102058
4.4889e-05
0.0102285
4.48e-05
0.0102509
4.66281e-05
0.0102741
4.73509e-05
0.0102971
4.75501e-05
0.0103202
4.92809e-05
0.0103438
4.84927e-05
0.0103669
5.01936e-05
0.0103905
5.00418e-05
0.010414
5.05557e-05
0.0104373
5.1917e-05
0.010461
5.14362e-05
0.0104841
5.3114e-05
0.0105076
5.33895e-05
0.0105308
5.39969e-05
0.0105537
5.54537e-05
0.0105769
5.55937e-05
0.0105992
5.71923e-05
0.0106218
5.81783e-05
0.0106439
5.89124e-05
0.0106653
6.14497e-05
0.0106872
6.18658e-05
0.0107077
6.45974e-05
0.0107286
6.64462e-05
0.0107486
6.8787e-05
0.0107681
7.17028e-05
0.0107872
7.47854e-05
0.0108055
7.81572e-05
0.0108231
8.26637e-05
0.0108404
8.70451e-05
0.0108562
9.18842e-05
0.0108719
0.000100042
0.0108867
0.000103603
0.0108998
0.000115504
0.0109134
0.000120798
0.0109244
0.000133874
0.0109358
0.000144468
0.0109451
0.000157381
0.0109539
0.00017417
0.0109615
0.000190262
0.0109679
0.000210644
0.0109731
0.000232682
0.0109775
0.000258117
0.0109806
0.000287947
0.0109832
0.000319883
0.0109841
0.00035808
0.0109853
0.000398374
0.0109846
0.000447697
0.0109852
0.000499714
0.010984
0.000560732
0.0109842
0.000627177
0.0109842
0.000701725
0.010984
0.000786223
0.0109865
0.000876247
0.010986
0.000980567
0.01099
0.00108814
0.0109884
0.00121406
0.0109901
0.00134194
0.0109848
0.00149044
0.0109784
0.00164061
0.0109637
0.00181252
0.0109424
0.00198645
0.0109102
0.00218246
0.0108664
0.0023832
0.0108106
0.00260091
0.0107393
0.00282834
0.0106561
0.00306059
0.00330519
0.0105522
0.0100017
2.16591e-06
0.0100075
4.32511e-06
0.0100157
9.17479e-06
0.010028
1.12966e-05
0.0100423
1.42834e-05
0.0100589
1.68611e-05
0.0100772
1.73748e-05
0.0100958
2.05265e-05
0.0101162
1.93066e-05
0.0101358
2.16742e-05
0.0101571
2.11214e-05
0.010178
2.16772e-05
0.0101995
2.3364e-05
0.0102221
2.21786e-05
0.010244
2.48062e-05
0.0102676
2.3756e-05
0.0102901
2.50574e-05
0.0103135
2.58168e-05
0.010337
2.50616e-05
0.0103599
2.72388e-05
0.0103839
2.6084e-05
0.0104068
2.7619e-05
0.0104305
2.818e-05
0.010454
2.79694e-05
0.0104771
3.00421e-05
0.0105009
2.95311e-05
0.0105237
3.12403e-05
0.0105471
3.20449e-05
0.01057
3.26963e-05
0.0105926
3.45916e-05
0.0106153
3.55107e-05
0.0106374
3.67528e-05
0.0106591
3.97365e-05
0.0106812
3.97634e-05
0.0107017
4.41247e-05
0.0107233
4.48508e-05
0.0107432
4.88972e-05
0.0107633
5.16333e-05
0.0107828
5.52458e-05
0.0108013
5.96586e-05
0.0108199
6.40905e-05
0.0108372
6.9691e-05
0.0108543
7.4837e-05
0.0108706
8.37666e-05
0.0108863
8.7835e-05
0.0109005
0.000101359
0.0109155
0.000105817
0.0109273
0.000121984
0.010941
0.000130792
0.0109512
0.000147154
0.0109631
0.000162328
0.010972
0.000181337
0.0109821
0.000200545
0.0109891
0.000225672
0.0109979
0.000249349
0.0110039
0.000281904
0.0110113
0.000312528
0.0110169
0.000352469
0.0110229
0.000392384
0.0110292
0.000441428
0.0110345
0.000494349
0.0110428
0.000552498
0.0110478
0.000622111
0.0110587
0.000690871
0.0110651
0.000779838
0.0110781
0.000863244
0.0110869
0.000971701
0.0111003
0.00107476
0.0111108
0.0012036
0.0111218
0.00133092
0.0111307
0.00148156
0.0111343
0.00163698
0.0111352
0.00181165
0.0111258
0.00199577
0.0111108
0.00219746
0.0110828
0.00241124
0.0110431
0.00264066
0.0109909
0.00288051
0.0109192
0.00313225
0.00338587
0.0108385
0.0100018
4.04403e-07
0.0100073
-1.17871e-06
0.0100149
1.51706e-06
0.010027
-8.10572e-07
0.0100404
9.15234e-07
0.0100571
1.90336e-07
0.0100746
-1.20296e-07
0.0100932
1.89036e-06
0.0101135
-9.66493e-07
0.0101329
2.2172e-06
0.0101545
-4.23961e-07
0.0101749
1.28416e-06
0.0101968
1.47262e-06
0.010219
-2.16243e-08
0.0102408
2.93523e-06
0.0102645
5.84871e-08
0.0102866
2.95651e-06
0.0103106
1.81482e-06
0.0103335
2.16532e-06
0.010357
3.81078e-06
0.0103807
2.34016e-06
0.0104036
4.67322e-06
0.0104276
4.20132e-06
0.0104508
4.74778e-06
0.0104742
6.69349e-06
0.0104981
5.66816e-06
0.0105208
8.49811e-06
0.0105445
8.32313e-06
0.0105674
9.86399e-06
0.0105901
1.18335e-05
0.0106132
1.24024e-05
0.0106349
1.50509e-05
0.0106578
1.68665e-05
0.010679
1.85383e-05
0.0107009
2.22442e-05
0.0107218
2.39938e-05
0.010743
2.77013e-05
0.0107625
3.207e-05
0.0107835
3.42688e-05
0.0108014
4.17677e-05
0.0108218
4.36572e-05
0.0108386
5.29488e-05
0.0108575
5.59241e-05
0.0108738
6.74532e-05
0.010891
7.0604e-05
0.010906
8.63396e-05
0.0109222
8.96017e-05
0.0109358
0.000108466
0.0109507
0.000115901
0.0109634
0.000134462
0.0109761
0.000149531
0.0109889
0.000168572
0.0109996
0.000189844
0.0110119
0.000213421
0.0110213
0.000239938
0.0110339
0.000269317
0.0110423
0.000304084
0.0110556
0.00033915
0.0110637
0.000384318
0.0110779
0.00042718
0.0110881
0.000484172
0.0111031
0.000537526
0.011117
0.000608192
0.0111331
0.000674827
0.0111518
0.000761122
0.0111698
0.000845169
0.011193
0.000948515
0.0112129
0.00105487
0.0112385
0.00117798
0.0112591
0.00131032
0.0112828
0.00145794
0.0112999
0.00161984
0.0113152
0.0017964
0.0113214
0.00198947
0.0113199
0.00219897
0.0113082
0.00242298
0.0112814
0.00266749
0.0112397
0.00292218
0.0111771
0.00319483
0.00346378
0.0110992
0.0100022
-1.77079e-06
0.0100072
-6.2363e-06
0.0100149
-6.15891e-06
0.0100273
-1.32117e-05
0.0100401
-1.18536e-05
0.0100575
-1.72463e-05
0.010074
-1.66061e-05
0.0100936
-1.76666e-05
0.0101132
-2.06101e-05
0.010133
-1.75639e-05
0.0101547
-2.2116e-05
0.0101746
-1.8621e-05
0.0101973
-2.12689e-05
0.0102187
-2.13935e-05
0.0102413
-1.96974e-05
0.0102647
-2.32754e-05
0.0102868
-1.92098e-05
0.0103112
-2.25455e-05
0.0103336
-2.02427e-05
0.0103576
-2.01876e-05
0.0103811
-2.11812e-05
0.010404
-1.81985e-05
0.0104287
-2.04844e-05
0.0104509
-1.75109e-05
0.0104757
-1.80336e-05
0.0104984
-1.70339e-05
0.0105223
-1.54325e-05
0.0105454
-1.47855e-05
0.0105689
-1.36163e-05
0.0105914
-1.07096e-05
0.0106153
-1.14308e-05
0.0106364
-6.08301e-06
0.0106606
-7.34899e-06
0.0106809
-1.74545e-06
0.0107042
-1.03175e-06
0.0107247
3.44951e-06
0.0107464
6.05259e-06
0.010767
1.14422e-05
0.0107872
1.40054e-05
0.0108073
2.17482e-05
0.0108266
2.43237e-05
0.0108458
3.37279e-05
0.0108637
3.80894e-05
0.0108829
4.81603e-05
0.0108987
5.48565e-05
0.0109178
6.7248e-05
0.0109319
7.54621e-05
0.0109505
8.99421e-05
0.0109633
0.000103072
0.0109813
0.000116401
0.0109926
0.000138284
0.0110111
0.000150034
0.011021
0.000179968
0.011039
0.000195436
0.0110495
0.00022945
0.0110665
0.000252291
0.0110791
0.000291447
0.0110954
0.000322926
0.0111107
0.000368971
0.011127
0.000410853
0.0111469
0.000464336
0.0111644
0.000519976
0.0111892
0.00058337
0.0112098
0.000654267
0.0112397
0.000731178
0.0112653
0.000819648
0.0113
0.000913831
0.0113303
0.00102452
0.0113689
0.00113937
0.0114025
0.00127676
0.0114413
0.00141915
0.0114739
0.0015872
0.0115066
0.0017637
0.0115296
0.00196651
0.0115454
0.00218311
0.0115502
0.00241825
0.0115353
0.00268237
0.0115104
0.00294709
0.011448
0.0032572
0.00353846
0.0113733
0.0100028
-4.5669e-06
0.0100072
-1.06618e-05
0.0100159
-1.48167e-05
0.0100285
-2.5851e-05
0.0100416
-2.49527e-05
0.0100598
-3.54759e-05
0.0100758
-3.2597e-05
0.0100966
-3.84267e-05
0.0101154
-3.94487e-05
0.010136
-3.81613e-05
0.0101575
-4.35487e-05
0.0101774
-3.85743e-05
0.010201
-4.48199e-05
0.0102215
-4.19145e-05
0.0102456
-4.37732e-05
0.0102677
-4.53972e-05
0.0102911
-4.25869e-05
0.0103147
-4.61942e-05
0.0103376
-4.30954e-05
0.0103616
-4.41994e-05
0.0103851
-4.46745e-05
0.0104081
-4.12593e-05
0.0104331
-4.54206e-05
0.010455
-3.94522e-05
0.0104806
-4.36162e-05
0.0105027
-3.91128e-05
0.0105273
-4.0069e-05
0.0105505
-3.80193e-05
0.0105736
-3.67154e-05
0.0105976
-3.47019e-05
0.0106199
-3.36749e-05
0.0106436
-2.97797e-05
0.0106655
-2.92791e-05
0.0106888
-2.50745e-05
0.0107098
-2.19555e-05
0.0107334
-2.02054e-05
0.0107527
-1.32135e-05
0.0107767
-1.25958e-05
0.0107944
-3.67509e-06
0.0108183
-2.14561e-06
0.010835
7.64894e-06
0.0108581
1.06292e-05
0.0108738
2.23406e-05
0.0108966
2.53785e-05
0.010911
4.04088e-05
0.0109333
4.50372e-05
0.0109472
6.15476e-05
0.0109678
6.93142e-05
0.0109824
8.84603e-05
0.0110009
9.79453e-05
0.0110166
0.000122598
0.0110338
0.000132818
0.0110503
0.000163405
0.0110662
0.000179577
0.0110849
0.000210713
0.0110997
0.000237474
0.0111217
0.000269539
0.0111367
0.000307905
0.0111612
0.000344467
0.0111791
0.000392936
0.0112069
0.000436569
0.0112292
0.000497628
0.0112614
0.000551151
0.0112896
0.000626145
0.0113273
0.000693404
0.0113632
0.000783818
0.0114068
0.000870183
0.011451
0.000980352
0.0114999
0.00109045
0.0115516
0.00122504
0.0116026
0.00136815
0.0116583
0.0015315
0.0117045
0.00171748
0.0117549
0.00191612
0.0117851
0.00215288
0.0118135
0.00238995
0.0118173
0.00267852
0.0118001
0.00296431
0.0117607
0.00329661
0.00362926
0.0116699
0.0100036
-8.21685e-06
0.0100071
-1.41336e-05
0.0100182
-2.58517e-05
0.0100304
-3.8075e-05
0.0100456
-4.01282e-05
0.0100639
-5.37921e-05
0.0100806
-4.93509e-05
0.0101023
-6.00757e-05
0.0101204
-5.76011e-05
0.0101423
-6.00573e-05
0.0101629
-6.40772e-05
0.010184
-5.97652e-05
0.0102075
-6.82451e-05
0.0102282
-6.26894e-05
0.0102531
-6.85955e-05
0.0102745
-6.68648e-05
0.0102989
-6.69153e-05
0.0103221
-6.93827e-05
0.010345
-6.6044e-05
0.0103698
-6.89875e-05
0.010392
-6.69134e-05
0.0104172
-6.63878e-05
0.0104401
-6.83176e-05
0.0104643
-6.37344e-05
0.0104882
-6.7478e-05
0.010512
-6.29641e-05
0.0105355
-6.35559e-05
0.0105603
-6.27847e-05
0.0105821
-5.85578e-05
0.0106082
-6.07402e-05
0.0106286
-5.41236e-05
0.0106548
-5.59681e-05
0.0106751
-4.95272e-05
0.0107003
-5.03011e-05
0.0107208
-4.24546e-05
0.0107449
-4.43525e-05
0.0107653
-3.35297e-05
0.0107887
-3.60434e-05
0.0108085
-2.34603e-05
0.0108311
-2.47484e-05
0.0108506
-1.18971e-05
0.0108719
-1.06382e-05
0.0108916
2.64978e-06
0.0109114
5.56077e-06
0.0109316
2.02354e-05
0.0109495
2.71139e-05
0.0109705
4.05353e-05
0.0109862
5.35999e-05
0.011009
6.57217e-05
0.0110224
8.45479e-05
0.0110469
9.81081e-05
0.0110592
0.000120509
0.0110843
0.000138271
0.0110975
0.0001664
0.0111232
0.000185021
0.0111381
0.000222593
0.0111655
0.000242044
0.011183
0.000290501
0.0112126
0.000314784
0.0112349
0.000370703
0.0112676
0.000403811
0.0112965
0.000468765
0.0113339
0.000513764
0.0113709
0.000589108
0.0114144
0.000649885
0.0114624
0.000735861
0.0115126
0.00082
0.011573
0.000919967
0.0116314
0.00103204
0.0117022
0.00115424
0.0117688
0.00130155
0.0118453
0.00145494
0.0119158
0.00164702
0.0119866
0.0018453
0.0120495
0.00208998
0.0120953
0.00234413
0.0121301
0.0026438
0.0121311
0.00296324
0.0121023
0.00332543
0.00370272
0.0120288
0.0100045
-1.27143e-05
0.0100078
-1.74505e-05
0.0100218
-3.98871e-05
0.0100339
-5.01727e-05
0.0100523
-5.84576e-05
0.0100704
-7.19103e-05
0.0100889
-6.7852e-05
0.0101108
-8.20165e-05
0.0101286
-7.53895e-05
0.0101522
-8.36367e-05
0.0101713
-8.31334e-05
0.0101953
-8.37592e-05
0.0102169
-8.98817e-05
0.01024
-8.58284e-05
0.0102637
-9.22303e-05
0.0102862
-8.93975e-05
0.0103103
-9.09815e-05
0.0103337
-9.27892e-05
0.0103566
-8.89637e-05
0.010382
-9.4361e-05
0.0104034
-8.83745e-05
0.0104302
-9.31649e-05
0.0104515
-8.96244e-05
0.0104778
-9.00143e-05
0.0105005
-9.0217e-05
0.0105252
-8.76293e-05
0.0105493
-8.76471e-05
0.010573
-8.65214e-05
0.0105972
-8.27836e-05
0.0106209
-8.43849e-05
0.0106446
-7.78811e-05
0.0106682
-7.95163e-05
0.0106917
-7.30142e-05
0.0107145
-7.31418e-05
0.0107383
-6.6237e-05
0.0107598
-6.57994e-05
0.0107842
-5.79946e-05
0.010804
-5.57956e-05
0.0108291
-4.86093e-05
0.0108472
-4.2784e-05
0.0108729
-3.76278e-05
0.0108893
-2.70998e-05
0.0109156
-2.36243e-05
0.0109305
-9.3045e-06
0.010957
-6.28288e-06
0.0109714
1.27402e-05
0.0109972
1.4715e-05
0.0110119
3.89467e-05
0.0110371
4.04474e-05
0.0110522
6.94865e-05
0.0110775
7.28282e-05
0.0110933
0.000104637
0.0111183
0.000113346
0.0111367
0.000147972
0.0111616
0.000160124
0.0111832
0.000200966
0.0112096
0.000215643
0.0112351
0.000265002
0.0112637
0.000286193
0.0112958
0.000338597
0.0113268
0.000372851
0.0113682
0.000427293
0.0114038
0.00047826
0.0114552
0.000537647
0.0114993
0.000605759
0.0115617
0.000673489
0.0116176
0.000764104
0.0116927
0.000844873
0.0117629
0.000961843
0.0118515
0.00106563
0.0119361
0.00121696
0.012037
0.001354
0.0121297
0.00155439
0.0122359
0.00173907
0.0123228
0.00200313
0.012412
0.00225493
0.0124694
0.00258632
0.012508
0.00292464
0.0125029
0.00333053
0.0037738
0.0124318
0.010004
-1.66898e-05
0.0100104
-2.38902e-05
0.0100267
-5.614e-05
0.0100412
-6.47101e-05
0.0100626
-7.98345e-05
0.0100809
-9.02152e-05
0.0101019
-8.88961e-05
0.0101225
-0.000102632
0.0101421
-9.49475e-05
0.0101654
-0.000106944
0.0101852
-0.000102932
0.0102106
-0.000109155
0.0102314
-0.000110646
0.0102567
-0.000111144
0.0102788
-0.000114386
0.0103029
-0.000113475
0.0103264
-0.000114503
0.0103499
-0.000116202
0.0103738
-0.000112941
0.010398
-0.000118508
0.0104214
-0.000111748
0.0104467
-0.00011853
0.0104697
-0.000112609
0.0104951
-0.000115433
0.010519
-0.000114135
0.0105431
-0.000111702
0.0105686
-0.000113096
0.0105911
-0.000109088
0.0106176
-0.00010926
0.0106392
-0.000106024
0.0106658
-0.00010449
0.0106874
-0.000101106
0.0107131
-9.87217e-05
0.0107352
-9.52463e-05
0.0107599
-9.09258e-05
0.010782
-8.78168e-05
0.0108064
-8.24339e-05
0.0108274
-7.68202e-05
0.0108522
-7.33472e-05
0.010872
-6.26746e-05
0.0108966
-6.22223e-05
0.0109165
-4.69098e-05
0.0109398
-4.70132e-05
0.0109604
-2.99029e-05
0.0109818
-2.7604e-05
0.011004
-9.54194e-06
0.0110232
-4.41071e-06
0.0110475
1.45692e-05
0.011065
2.29967e-05
0.0110914
4.31076e-05
0.0111078
5.6366e-05
0.0111359
7.66017e-05
0.0111524
9.6797e-05
0.0111833
0.000117119
0.0112002
0.00014317
0.0112344
0.000166787
0.0112539
0.000196157
0.0112919
0.000227034
0.0113156
0.000262488
0.0113593
0.000294889
0.0113877
0.000344408
0.01144
0.000374991
0.0114754
0.000442915
0.0115387
0.00047435
0.0115838
0.000560612
0.0116605
0.000596752
0.0117192
0.000705418
0.0118116
0.000752477
0.0118894
0.000884062
0.0119983
0.000956708
0.0121013
0.00111394
0.0122248
0.00123053
0.0123538
0.00142545
0.0124817
0.00161115
0.0126288
0.00185603
0.0127339
0.00214981
0.0128692
0.002451
0.0129185
0.00287533
0.0129857
0.0032634
0.00384205
0.0129174
0.0100037
-2.03838e-05
0.0100159
-3.61336e-05
0.0100349
-7.51336e-05
0.0100542
-8.39785e-05
0.0100782
-0.00010383
0.0100967
-0.000108747
0.0101203
-0.000112475
0.0101386
-0.000120928
0.0101622
-0.000118547
0.0101832
-0.000127992
0.0102067
-0.000126364
0.0102308
-0.000133309
0.0102531
-0.000132939
0.0102787
-0.000136759
0.0103004
-0.000136091
0.0103257
-0.000138702
0.0103485
-0.00013736
0.0103725
-0.000140155
0.010397
-0.000137496
0.0104205
-0.000141941
0.0104454
-0.00013665
0.0104698
-0.000142985
0.0104936
-0.000136371
0.0105196
-0.000141462
0.0105422
-0.000136744
0.010569
-0.00013845
0.0105914
-0.000135531
0.0106176
-0.000135263
0.0106409
-0.000132611
0.0106655
-0.000130579
0.0106901
-0.000129087
0.0107135
-0.000124477
0.0107377
-0.000122969
0.0107619
-0.000119454
0.0107839
-0.000112909
0.0108099
-0.000113803
0.0108296
-0.000102137
0.0108563
-0.000103565
0.010875
-9.20429e-05
0.0109017
-8.9356e-05
0.0109196
-8.01385e-05
0.0109465
-7.38106e-05
0.0109632
-6.373e-05
0.0109908
-5.74673e-05
0.0110063
-4.31072e-05
0.0110346
-3.78088e-05
0.0110495
-1.93183e-05
0.0110783
-1.42294e-05
0.0110939
7.42743e-06
0.011123
1.39324e-05
0.0111394
3.99911e-05
0.0111694
4.66186e-05
0.011187
7.91861e-05
0.0112199
8.42609e-05
0.0112385
0.000124564
0.0112746
0.000130687
0.011298
0.000172676
0.0113356
0.000189466
0.0113678
0.000230345
0.0114091
0.000253542
0.0114484
0.00030513
0.0114983
0.00032506
0.0115472
0.000394033
0.0116063
0.000415237
0.0116712
0.000495768
0.0117405
0.000527397
0.0118271
0.000618828
0.0119078
0.000671745
0.012025
0.000766862
0.0121177
0.000864012
0.0122781
0.00095358
0.012386
0.00112265
0.0125898
0.00122157
0.0127227
0.00147826
0.0129411
0.00163766
0.013106
0.0019849
0.0132728
0.00228422
0.0134331
0.00271501
0.0135108
0.00318568
0.00378749
0.0135654
0.010006
-2.64174e-05
0.0100279
-5.79631e-05
0.0100514
-9.86778e-05
0.0100777
-0.000110266
0.0101006
-0.000126725
0.0101225
-0.000130659
0.0101448
-0.000134737
0.0101639
-0.000140097
0.0101887
-0.000143325
0.0102095
-0.000148768
0.0102356
-0.000152481
0.0102584
-0.000156065
0.0102825
-0.000157081
0.010307
-0.000161255
0.010329
-0.000158097
0.0103545
-0.000164239
0.0103762
-0.000159067
0.0104015
-0.000165422
0.0104242
-0.000160162
0.0104488
-0.000166598
0.0104717
-0.000159548
0.0104969
-0.000168162
0.0105184
-0.000157811
0.0105451
-0.000168227
0.0105645
-0.000156086
0.0105925
-0.000166471
0.0106105
-0.000153518
0.0106385
-0.000163287
0.0106564
-0.000150475
0.0106831
-0.000157337
0.0107015
-0.000147506
0.0107269
-0.00014988
0.0107451
-0.000141105
0.0107706
-0.000144948
0.0107866
-0.000128974
0.0108136
-0.000140816
0.0108269
-0.000115376
0.0108554
-0.000132052
0.0108664
-0.000103116
0.0108955