/*--------------------------------*- C++ -*----------------------------------*\
| =========                 |                                                 |
| \\      /  F ield         | OpenFOAM: The Open Source CFD Toolbox           |
|  \\    /   O peration     | Version:  2306                                  |
|   \\  /    A nd           | Website:  www.openfoam.com                      |
|    \\/     M anipulation  |                                                 |
\*---------------------------------------------------------------------------*/
FoamFile
{
    version     2.0;
    format      ascii;
    arch        "LSB;label=32;scalar=64";
    class       volVectorField;
    location    "0.1";
    object      U;
}
// * * * * * * * * * * * * * * * * * * * * * * * * * * * * * * * * * * * * * //

dimensions      [0 1 -1 0 0 0 0];

internalField   nonuniform List<vector> 
4400
(
(9.90178 0.0455096 0)
(9.8063 0.0987118 0)
(9.70011 0.120957 0)
(9.57024 0.125768 0)
(9.41827 0.124466 0)
(9.25234 0.123431 0)
(9.08079 0.124108 0)
(8.90854 0.125644 0)
(8.73757 0.126941 0)
(8.56835 0.127351 0)
(8.40065 0.1268 0)
(8.23421 0.125476 0)
(8.06886 0.123639 0)
(7.90453 0.121618 0)
(7.74139 0.11947 0)
(7.57954 0.117333 0)
(7.41911 0.115164 0)
(7.26044 0.112916 0)
(7.10339 0.11072 0)
(6.94827 0.10831 0)
(6.79524 0.105879 0)
(6.64407 0.103472 0)
(6.49523 0.100809 0)
(6.34858 0.0982008 0)
(6.20418 0.0956656 0)
(6.06226 0.0928472 0)
(5.92286 0.0900532 0)
(5.78596 0.0874861 0)
(5.65182 0.0845488 0)
(5.52059 0.0815591 0)
(5.39188 0.0790019 0)
(5.26629 0.0761119 0)
(5.14352 0.0729199 0)
(5.02338 0.0703 0)
(4.90646 0.0676513 0)
(4.79277 0.0644515 0)
(4.68185 0.0614042 0)
(4.57359 0.0588228 0)
(4.46849 0.0559889 0)
(4.36657 0.0528305 0)
(4.26717 0.0501977 0)
(4.17047 0.0478989 0)
(4.07619 0.0454255 0)
(3.98443 0.0425937 0)
(3.89492 0.0401652 0)
(3.80733 0.0382598 0)
(3.72159 0.0366911 0)
(3.63685 0.0353102 0)
(3.55349 0.034134 0)
(3.46994 0.0335499 0)
(3.38725 0.0332674 0)
(3.30283 0.0338326 0)
(3.21785 0.0350284 0)
(3.12975 0.0370278 0)
(3.03865 0.0399404 0)
(2.94226 0.0438202 0)
(2.83983 0.048747 0)
(2.72996 0.0549096 0)
(2.61009 0.0629275 0)
(2.47908 0.0728324 0)
(2.33291 0.0847854 0)
(2.17013 0.0993181 0)
(1.98577 0.11658 0)
(1.77752 0.137127 0)
(1.53955 0.160296 0)
(1.26907 0.186113 0)
(0.960092 0.213372 0)
(0.610733 0.241584 0)
(0.211905 0.269218 0)
(-0.230357 0.299925 0)
(-0.71946 0.322729 0)
(-1.264 0.300474 0)
(-1.8205 0.145601 0)
(-2.24629 -0.168225 0)
(-2.40296 -0.500629 0)
(-2.31955 -0.728608 0)
(-2.1034 -0.818807 0)
(-1.81589 -0.738466 0)
(-1.55449 -0.396444 0)
(-1.37832 0.054826 0)
(10.0002 0.0611723 0)
(10.0319 0.137442 0)
(10.0696 0.173588 0)
(10.1051 0.184889 0)
(10.1326 0.186098 0)
(10.1502 0.186159 0)
(10.159 0.188187 0)
(10.1613 0.191836 0)
(10.1593 0.195779 0)
(10.1543 0.198946 0)
(10.1471 0.200899 0)
(10.1376 0.201785 0)
(10.1259 0.201848 0)
(10.1118 0.201448 0)
(10.0951 0.200895 0)
(10.0763 0.200159 0)
(10.0548 0.199451 0)
(10.0313 0.198597 0)
(10.0056 0.197652 0)
(9.97783 0.196652 0)
(9.94851 0.195284 0)
(9.91687 0.194082 0)
(9.88402 0.192446 0)
(9.84907 0.190796 0)
(9.81281 0.189081 0)
(9.77487 0.18704 0)
(9.7354 0.185171 0)
(9.69499 0.182768 0)
(9.6524 0.180718 0)
(9.60973 0.178156 0)
(9.56481 0.175607 0)
(9.51938 0.173245 0)
(9.47261 0.170238 0)
(9.42467 0.167791 0)
(9.37611 0.164885 0)
(9.32568 0.161997 0)
(9.27568 0.159197 0)
(9.22331 0.155894 0)
(9.17108 0.153394 0)
(9.11724 0.150256 0)
(9.06298 0.147564 0)
(9.00747 0.145179 0)
(8.95043 0.142414 0)
(8.89294 0.140677 0)
(8.83368 0.138048 0)
(8.77344 0.136794 0)
(8.71171 0.135319 0)
(8.64706 0.134939 0)
(8.58241 0.134662 0)
(8.51239 0.135167 0)
(8.44343 0.13651 0)
(8.36711 0.138587 0)
(8.29052 0.142099 0)
(8.20696 0.146208 0)
(8.11937 0.153048 0)
(8.02578 0.160739 0)
(7.92325 0.17138 0)
(7.81487 0.183502 0)
(7.69341 0.198977 0)
(7.56341 0.217596 0)
(7.41717 0.240352 0)
(7.25646 0.26718 0)
(7.07707 0.299163 0)
(6.87617 0.336314 0)
(6.65282 0.380153 0)
(6.40038 0.429481 0)
(6.11944 0.485635 0)
(5.80225 0.546088 0)
(5.4486 0.611483 0)
(5.05356 0.68101 0)
(4.61859 0.745528 0)
(4.13299 0.795517 0)
(3.59694 0.810112 0)
(3.00405 0.762028 0)
(2.31776 0.658737 0)
(1.47142 0.531115 0)
(0.375285 0.395857 0)
(-0.91687 0.224724 0)
(-2.11591 -0.0583588 0)
(-2.83149 -0.372757 0)
(10.0001 0.0266983 0)
(10.0168 0.0697896 0)
(10.0428 0.0998048 0)
(10.0748 0.117456 0)
(10.1083 0.126724 0)
(10.1396 0.131739 0)
(10.1672 0.135777 0)
(10.1913 0.140116 0)
(10.213 0.145139 0)
(10.2335 0.150108 0)
(10.2537 0.154547 0)
(10.2738 0.158392 0)
(10.2939 0.16118 0)
(10.3139 0.163631 0)
(10.3333 0.165431 0)
(10.3522 0.167043 0)
(10.3704 0.168554 0)
(10.3878 0.169669 0)
(10.4044 0.171076 0)
(10.4203 0.171831 0)
(10.4355 0.17284 0)
(10.4498 0.17347 0)
(10.4633 0.17388 0)
(10.476 0.174411 0)
(10.4877 0.174289 0)
(10.4988 0.174614 0)
(10.5084 0.174223 0)
(10.5178 0.173966 0)
(10.5254 0.173554 0)
(10.5326 0.172875 0)
(10.5386 0.172114 0)
(10.5431 0.171302 0)
(10.5474 0.170421 0)
(10.5491 0.169358 0)
(10.5514 0.168448 0)
(10.5503 0.167168 0)
(10.55 0.166379 0)
(10.547 0.164753 0)
(10.5431 0.164012 0)
(10.5385 0.162977 0)
(10.5304 0.162117 0)
(10.5239 0.161566 0)
(10.5116 0.161229 0)
(10.5016 0.161052 0)
(10.4864 0.161678 0)
(10.4714 0.161683 0)
(10.4542 0.163509 0)
(10.4321 0.165394 0)
(10.412 0.167898 0)
(10.3827 0.172525 0)
(10.3578 0.176099 0)
(10.3222 0.183706 0)
(10.2884 0.190122 0)
(10.2476 0.200647 0)
(10.202 0.212476 0)
(10.1544 0.227186 0)
(10.0946 0.245466 0)
(10.0363 0.265694 0)
(9.962 0.292036 0)
(9.88821 0.321792 0)
(9.79692 0.358488 0)
(9.70165 0.400978 0)
(9.58924 0.450148 0)
(9.46854 0.508443 0)
(9.32923 0.573742 0)
(9.1779 0.649413 0)
(9.00388 0.732136 0)
(8.81602 0.823401 0)
(8.59865 0.920864 0)
(8.36572 1.02078 0)
(8.09408 1.11663 0)
(7.7965 1.19565 0)
(7.43567 1.245 0)
(7.02009 1.25677 0)
(6.50886 1.24175 0)
(5.91714 1.25311 0)
(5.2298 1.29299 0)
(4.45569 1.38674 0)
(3.57138 1.37254 0)
(2.56333 1.20298 0)
(10.0001 0.0187825 0)
(10.0102 0.0526807 0)
(10.0277 0.0805609 0)
(10.0512 0.101135 0)
(10.0779 0.114636 0)
(10.1054 0.122938 0)
(10.1318 0.128254 0)
(10.1565 0.132234 0)
(10.1797 0.136074 0)
(10.2018 0.139894 0)
(10.2239 0.143597 0)
(10.246 0.147024 0)
(10.2687 0.149766 0)
(10.2919 0.152032 0)
(10.3153 0.153813 0)
(10.3389 0.155054 0)
(10.3623 0.156322 0)
(10.3859 0.157094 0)
(10.4092 0.158038 0)
(10.4324 0.158766 0)
(10.4555 0.159179 0)
(10.4785 0.160145 0)
(10.5012 0.159963 0)
(10.5238 0.160902 0)
(10.5461 0.160667 0)
(10.568 0.160874 0)
(10.5899 0.161244 0)
(10.6108 0.16029 0)
(10.6323 0.161251 0)
(10.6518 0.15979 0)
(10.6728 0.160339 0)
(10.6912 0.159554 0)
(10.7109 0.159079 0)
(10.7282 0.159302 0)
(10.7458 0.158136 0)
(10.7625 0.158606 0)
(10.7771 0.157943 0)
(10.7936 0.157751 0)
(10.8049 0.157774 0)
(10.8209 0.157987 0)
(10.8288 0.158041 0)
(10.843 0.15945 0)
(10.8485 0.159549 0)
(10.8587 0.161982 0)
(10.8626 0.163424 0)
(10.868 0.165721 0)
(10.8711 0.169573 0)
(10.8706 0.172849 0)
(10.871 0.1788 0)
(10.8647 0.184991 0)
(10.8613 0.192397 0)
(10.8496 0.202861 0)
(10.8399 0.212696 0)
(10.8241 0.228083 0)
(10.806 0.24334 0)
(10.785 0.26438 0)
(10.7564 0.286751 0)
(10.7283 0.314301 0)
(10.6913 0.346366 0)
(10.6524 0.384125 0)
(10.6064 0.428762 0)
(10.5535 0.478889 0)
(10.4967 0.53852 0)
(10.4307 0.604814 0)
(10.3607 0.682196 0)
(10.2806 0.767985 0)
(10.1943 0.863258 0)
(10.0993 0.967979 0)
(9.99252 1.07894 0)
(9.87788 1.19442 0)
(9.73948 1.30947 0)
(9.58656 1.4138 0)
(9.38674 1.51102 0)
(9.15537 1.5872 0)
(8.85446 1.6732 0)
(8.50821 1.75455 0)
(8.08986 1.86333 0)
(7.60546 1.95049 0)
(7.02491 2.01296 0)
(6.34286 2.0133 0)
(10 0.0133307 0)
(10.007 0.0384892 0)
(10.0195 0.0602908 0)
(10.0371 0.0778472 0)
(10.0584 0.0903373 0)
(10.0818 0.0987593 0)
(10.1057 0.104238 0)
(10.1292 0.107842 0)
(10.152 0.11114 0)
(10.1741 0.113817 0)
(10.1961 0.116923 0)
(10.218 0.119663 0)
(10.2403 0.122163 0)
(10.2633 0.124584 0)
(10.2862 0.126032 0)
(10.31 0.127898 0)
(10.3334 0.128675 0)
(10.3574 0.129896 0)
(10.3811 0.13072 0)
(10.4047 0.131301 0)
(10.4289 0.132325 0)
(10.4522 0.132568 0)
(10.4765 0.133549 0)
(10.4996 0.133699 0)
(10.5238 0.134486 0)
(10.5466 0.134567 0)
(10.5703 0.135224 0)
(10.5929 0.135093 0)
(10.6162 0.135639 0)
(10.6384 0.135609 0)
(10.6607 0.135585 0)
(10.6831 0.136327 0)
(10.7039 0.135491 0)
(10.726 0.137152 0)
(10.7451 0.135954 0)
(10.7664 0.137753 0)
(10.7841 0.137397 0)
(10.804 0.138444 0)
(10.8206 0.139231 0)
(10.8393 0.140311 0)
(10.8537 0.141701 0)
(10.8709 0.143889 0)
(10.8832 0.145635 0)
(10.8974 0.149003 0)
(10.9083 0.152333 0)
(10.9184 0.155661 0)
(10.9292 0.162023 0)
(10.9343 0.166007 0)
(10.9431 0.175366 0)
(10.9438 0.182231 0)
(10.9489 0.193737 0)
(10.9459 0.205283 0)
(10.9461 0.219129 0)
(10.9402 0.236426 0)
(10.9347 0.255707 0)
(10.9244 0.279476 0)
(10.9108 0.306169 0)
(10.8963 0.336909 0)
(10.8776 0.373579 0)
(10.857 0.415454 0)
(10.8318 0.46435 0)
(10.8032 0.519656 0)
(10.7726 0.583067 0)
(10.7377 0.655108 0)
(10.7029 0.736984 0)
(10.6601 0.827808 0)
(10.6221 0.928496 0)
(10.5717 1.03878 0)
(10.5291 1.15458 0)
(10.4687 1.28073 0)
(10.4115 1.40288 0)
(10.3312 1.53345 0)
(10.2375 1.65597 0)
(10.1204 1.78452 0)
(9.95985 1.91544 0)
(9.78586 2.05193 0)
(9.53549 2.19554 0)
(9.27555 2.33428 0)
(8.91629 2.46822 0)
(8.5322 2.58114 0)
(10.0001 0.00963148 0)
(10.0052 0.0280539 0)
(10.015 0.0445843 0)
(10.029 0.0588064 0)
(10.0464 0.0696157 0)
(10.0667 0.0776394 0)
(10.0881 0.0830312 0)
(10.1104 0.0867277 0)
(10.1324 0.0897543 0)
(10.1543 0.0920636 0)
(10.1762 0.0945573 0)
(10.1978 0.0968543 0)
(10.2199 0.0989934 0)
(10.2423 0.101207 0)
(10.265 0.102642 0)
(10.2882 0.104349 0)
(10.3114 0.105417 0)
(10.335 0.106165 0)
(10.3588 0.107547 0)
(10.3819 0.107521 0)
(10.4064 0.108924 0)
(10.4293 0.109066 0)
(10.4537 0.109773 0)
(10.477 0.110703 0)
(10.5003 0.110468 0)
(10.5246 0.111991 0)
(10.5463 0.111594 0)
(10.5713 0.112462 0)
(10.5923 0.113002 0)
(10.6166 0.112978 0)
(10.638 0.113858 0)
(10.6609 0.114205 0)
(10.6827 0.114422 0)
(10.7038 0.116044 0)
(10.7251 0.115547 0)
(10.7453 0.11777 0)
(10.765 0.118271 0)
(10.7842 0.119346 0)
(10.803 0.121843 0)
(10.8209 0.122507 0)
(10.8385 0.125831 0)
(10.854 0.128091 0)
(10.8711 0.131099 0)
(10.8829 0.135954 0)
(10.8991 0.139624 0)
(10.9074 0.145138 0)
(10.9233 0.152196 0)
(10.9283 0.158236 0)
(10.9416 0.168942 0)
(10.9438 0.177447 0)
(10.9531 0.191252 0)
(10.9526 0.20412 0)
(10.9574 0.220982 0)
(10.9557 0.239115 0)
(10.9563 0.261948 0)
(10.9507 0.287134 0)
(10.9445 0.317114 0)
(10.936 0.349839 0)
(10.9281 0.389353 0)
(10.914 0.433583 0)
(10.904 0.485208 0)
(10.8816 0.542991 0)
(10.8715 0.608492 0)
(10.8455 0.683575 0)
(10.8345 0.766 0)
(10.8048 0.860262 0)
(10.7933 0.961285 0)
(10.7612 1.07322 0)
(10.7483 1.19324 0)
(10.7133 1.31997 0)
(10.6902 1.45405 0)
(10.6475 1.59425 0)
(10.6039 1.73593 0)
(10.5395 1.89338 0)
(10.4657 2.04342 0)
(10.3572 2.21944 0)
(10.242 2.38405 0)
(10.0724 2.57219 0)
(9.90046 2.74828 0)
(9.65729 2.932 0)
(10.0001 0.00694678 0)
(10.0042 0.020108 0)
(10.0124 0.0322754 0)
(10.0242 0.0433451 0)
(10.0392 0.0517101 0)
(10.0571 0.0589575 0)
(10.0765 0.0633903 0)
(10.0976 0.0671397 0)
(10.1188 0.069705 0)
(10.1402 0.0714315 0)
(10.1621 0.0738664 0)
(10.1833 0.0749072 0)
(10.2057 0.0774549 0)
(10.2272 0.0785387 0)
(10.2502 0.0801941 0)
(10.2726 0.0817296 0)
(10.2957 0.0821601 0)
(10.3193 0.0838124 0)
(10.3423 0.083837 0)
(10.3662 0.0850695 0)
(10.3895 0.0853398 0)
(10.4135 0.0860496 0)
(10.4365 0.0867493 0)
(10.4609 0.0871651 0)
(10.4833 0.0878046 0)
(10.508 0.0885988 0)
(10.5295 0.0889076 0)
(10.5542 0.0896704 0)
(10.5759 0.0904646 0)
(10.5989 0.09067 0)
(10.6218 0.0920211 0)
(10.6433 0.092083 0)
(10.6664 0.0937101 0)
(10.6866 0.0943661 0)
(10.7089 0.0955674 0)
(10.7286 0.097366 0)
(10.749 0.0989279 0)
(10.7677 0.100389 0)
(10.788 0.103471 0)
(10.8048 0.105144 0)
(10.8245 0.108744 0)
(10.8389 0.112474 0)
(10.8583 0.115242 0)
(10.8693 0.122968 0)
(10.8875 0.12508 0)
(10.8957 0.134551 0)
(10.914 0.140285 0)
(10.9194 0.1495 0)
(10.9346 0.160566 0)
(10.9391 0.170457 0)
(10.9491 0.185883 0)
(10.953 0.200569 0)
(10.9573 0.218266 0)
(10.9625 0.239264 0)
(10.9633 0.262005 0)
(10.9649 0.29113 0)
(10.96 0.320485 0)
(10.9595 0.357381 0)
(10.954 0.396278 0)
(10.9519 0.443779 0)
(10.9419 0.496046 0)
(10.937 0.555086 0)
(10.9242 0.623026 0)
(10.9227 0.696504 0)
(10.9059 0.782745 0)
(10.9064 0.873848 0)
(10.8864 0.977701 0)
(10.8882 1.08917 0)
(10.8689 1.20863 0)
(10.8644 1.34211 0)
(10.8471 1.4761 0)
(10.8261 1.62845 0)
(10.8081 1.78126 0)
(10.7641 1.94858 0)
(10.7314 2.12448 0)
(10.6612 2.30822 0)
(10.5975 2.50656 0)
(10.4969 2.70887 0)
(10.393 2.92518 0)
(10.2537 3.13035 0)
(10.0001 0.00480138 0)
(10.0035 0.0134855 0)
(10.0111 0.0220703 0)
(10.0213 0.029874 0)
(10.0349 0.0357791 0)
(10.0511 0.0414289 0)
(10.069 0.0445825 0)
(10.0892 0.0478865 0)
(10.1094 0.0497243 0)
(10.1306 0.0510311 0)
(10.1522 0.053025 0)
(10.1734 0.0533641 0)
(10.1957 0.055646 0)
(10.2171 0.0562062 0)
(10.2398 0.0574024 0)
(10.2625 0.0590485 0)
(10.2844 0.0587389 0)
(10.3092 0.0608601 0)
(10.3304 0.0603469 0)
(10.3557 0.061575 0)
(10.3779 0.0622332 0)
(10.4022 0.0619952 0)
(10.4258 0.0638699 0)
(10.4484 0.0631812 0)
(10.4734 0.0646337 0)
(10.4953 0.0652702 0)
(10.5191 0.0654219 0)
(10.5422 0.0669503 0)
(10.5648 0.0672552 0)
(10.5875 0.0681921 0)
(10.6105 0.0696514 0)
(10.6319 0.0698269 0)
(10.6557 0.0721781 0)
(10.6749 0.0728698 0)
(10.6987 0.0745029 0)
(10.7175 0.0771792 0)
(10.7386 0.0783701 0)
(10.7576 0.0815956 0)
(10.778 0.0840265 0)
(10.7953 0.0873793 0)
(10.8157 0.0911093 0)
(10.8296 0.0956994 0)
(10.8521 0.0994549 0)
(10.8603 0.107876 0)
(10.8831 0.110707 0)
(10.8882 0.121903 0)
(10.9122 0.127499 0)
(10.914 0.139113 0)
(10.9353 0.15007 0)
(10.937 0.161651 0)
(10.9533 0.178418 0)
(10.9558 0.193604 0)
(10.9642 0.2139 0)
(10.9723 0.234496 0)
(10.9753 0.260409 0)
(10.9833 0.288598 0)
(10.978 0.321313 0)
(10.9873 0.35743 0)
(10.981 0.399252 0)
(10.9922 0.445861 0)
(10.9806 0.500613 0)
(10.9909 0.558998 0)
(10.9776 0.627598 0)
(10.9929 0.701851 0)
(10.9771 0.785545 0)
(10.9934 0.879567 0)
(10.9789 0.979301 0)
(10.9919 1.0928 0)
(10.9842 1.21397 0)
(10.9884 1.34371 0)
(10.9836 1.49097 0)
(10.9774 1.6367 0)
(10.9664 1.80996 0)
(10.9497 1.97684 0)
(10.9202 2.17259 0)
(10.8887 2.36624 0)
(10.8326 2.58247 0)
(10.7802 2.80286 0)
(10.6919 3.03147 0)
(10.6158 3.27398 0)
(10.0001 0.00307226 0)
(10.0031 0.00732097 0)
(10.0106 0.013277 0)
(10.0195 0.0173981 0)
(10.0325 0.0210885 0)
(10.0474 0.0248858 0)
(10.0645 0.0260945 0)
(10.0842 0.0294804 0)
(10.1032 0.0293087 0)
(10.1251 0.03133 0)
(10.1453 0.0318337 0)
(10.1677 0.0321204 0)
(10.189 0.0341989 0)
(10.2108 0.0333979 0)
(10.2334 0.0356118 0)
(10.2556 0.0354412 0)
(10.2781 0.0361822 0)
(10.3019 0.0374795 0)
(10.3241 0.0367316 0)
(10.3482 0.0387387 0)
(10.3715 0.0380505 0)
(10.3946 0.0391126 0)
(10.4196 0.0400182 0)
(10.4406 0.0397195 0)
(10.4674 0.0414543 0)
(10.4875 0.0415388 0)
(10.513 0.0424012 0)
(10.5349 0.0439341 0)
(10.5583 0.0438346 0)
(10.5807 0.0461713 0)
(10.6037 0.0465443 0)
(10.6259 0.0480089 0)
(10.6488 0.0503679 0)
(10.6693 0.050883 0)
(10.6921 0.0541743 0)
(10.7129 0.0556377 0)
(10.7321 0.0587529 0)
(10.7536 0.0615218 0)
(10.7723 0.0651517 0)
(10.792 0.0684021 0)
(10.8112 0.0738017 0)
(10.8269 0.0776745 0)
(10.8495 0.0837454 0)
(10.8588 0.091448 0)
(10.8821 0.0957964 0)
(10.8887 0.108196 0)
(10.9132 0.11332 0)
(10.9171 0.127553 0)
(10.9385 0.137672 0)
(10.9442 0.151595 0)
(10.9594 0.168479 0)
(10.9683 0.18514 0)
(10.9729 0.20577 0)
(10.9917 0.228426 0)
(10.9892 0.253763 0)
(11.0102 0.284266 0)
(10.9992 0.315908 0)
(11.0214 0.355174 0)
(11.0135 0.394133 0)
(11.0354 0.445653 0)
(11.0273 0.49483 0)
(11.0436 0.558778 0)
(11.0416 0.622186 0)
(11.0576 0.698063 0)
(11.0596 0.781977 0)
(11.0754 0.869721 0)
(11.077 0.977168 0)
(11.0976 1.08044 0)
(11.0966 1.20988 0)
(11.122 1.33685 0)
(11.1119 1.48579 0)
(11.1398 1.64092 0)
(11.1158 1.81326 0)
(11.14 1.99577 0)
(11.0963 2.19552 0)
(11.1092 2.40708 0)
(11.0379 2.6305 0)
(11.0329 2.87227 0)
(10.9288 3.11173 0)
(10.8984 3.36655 0)
(9.99994 0.00137372 0)
(10.0032 0.00158576 0)
(10.0105 0.00523805 0)
(10.0186 0.00537747 0)
(10.0314 0.00731887 0)
(10.0456 0.0086058 0)
(10.0624 0.00829702 0)
(10.082 0.0111916 0)
(10.0999 0.0090754 0)
(10.1227 0.0117951 0)
(10.1417 0.010564 0)
(10.1649 0.011213 0)
(10.1863 0.0126984 0)
(10.2069 0.0108574 0)
(10.2317 0.0138797 0)
(10.2509 0.0119628 0)
(10.2766 0.0136757 0)
(10.2973 0.0141498 0)
(10.3219 0.0132132 0)
(10.3446 0.015814 0)
(10.3684 0.0140673 0)
(10.3916 0.0161077 0)
(10.4165 0.0163426 0)
(10.4373 0.0161444 0)
(10.4651 0.0184935 0)
(10.4838 0.0175316 0)
(10.5108 0.019816 0)
(10.5319 0.0202518 0)
(10.5553 0.0212504 0)
(10.5795 0.0230795 0)
(10.5994 0.0243385 0)
(10.6261 0.0252469 0)
(10.6446 0.0291434 0)
(10.6695 0.0281711 0)
(10.6891 0.034143 0)
(10.7129 0.0335606 0)
(10.7301 0.0390215 0)
(10.7545 0.0412989 0)
(10.7704 0.0452272 0)
(10.7948 0.0502957 0)
(10.8096 0.0542077 0)
(10.8313 0.0609848 0)
(10.8493 0.0656048 0)
(10.8646 0.0753747 0)
(10.8835 0.0792747 0)
(10.8966 0.0937415 0)
(10.9167 0.0974908 0)
(10.9274 0.115255 0)
(10.9454 0.122812 0)
(10.9563 0.141221 0)
(10.9724 0.15487 0)
(10.9818 0.175987 0)
(10.9928 0.193473 0)
(11.008 0.221029 0)
(11.0177 0.242469 0)
(11.0304 0.27741 0)
(11.0382 0.306002 0)
(11.0463 0.347374 0)
(11.0646 0.386721 0)
(11.0688 0.434514 0)
(11.0902 0.489642 0)
(11.0901 0.542798 0)
(11.1152 0.617521 0)
(11.123 0.679237 0)
(11.1437 0.772886 0)
(11.1645 0.85135 0)
(11.1733 0.961373 0)
(11.2118 1.06266 0)
(11.2105 1.19211 0)
(11.2608 1.318 0)
(11.2502 1.47184 0)
(11.3027 1.62711 0)
(11.2836 1.80643 0)
(11.3291 1.9963 0)
(11.2949 2.20473 0)
(11.3248 2.42778 0)
(11.2662 2.66928 0)
(11.2725 2.91512 0)
(11.1788 3.18778 0)
(11.1489 3.4456 0)
(9.99953 -0.000553383 0)
(10.0038 -0.00394328 0)
(10.0107 -0.00230242 0)
(10.0183 -0.00696354 0)
(10.0319 -0.00548276 0)
(10.0448 -0.00821417 0)
(10.0635 -0.0085423 0)
(10.081 -0.00747738 0)
(10.1007 -0.0109614 0)
(10.1221 -0.0074285 0)
(10.1421 -0.0113626 0)
(10.1649 -0.00871607 0)
(10.1864 -0.00977029 0)
(10.2069 -0.0109013 0)
(10.2324 -0.00810067 0)
(10.2503 -0.0118336 0)
(10.2778 -0.0079127 0)
(10.2968 -0.0104588 0)
(10.3226 -0.00899826 0)
(10.3454 -0.00817107 0)
(10.3676 -0.00942347 0)
(10.3942 -0.00685257 0)
(10.4144 -0.00788251 0)
(10.4409 -0.00683416 0)
(10.4628 -0.00500563 0)
(10.4875 -0.00639484 0)
(10.5092 -0.00271724 0)
(10.5354 -0.00383109 0)
(10.5541 -0.00137583 0)
(10.5835 0.000283944 0)
(10.5982 0.000668936 0)
(10.6309 0.00444736 0)
(10.6435 0.00478844 0)
(10.6749 0.00850496 0)
(10.6889 0.0104325 0)
(10.7185 0.0142564 0)
(10.7312 0.0162119 0)
(10.7605 0.0228567 0)
(10.7727 0.02292 0)
(10.8014 0.0332537 0)
(10.8135 0.0326443 0)
(10.8381 0.0447959 0)
(10.8563 0.0456997 0)
(10.8708 0.0592761 0)
(10.8949 0.0611832 0)
(10.9022 0.0785069 0)
(10.9327 0.0805868 0)
(10.9333 0.101122 0)
(10.9667 0.107579 0)
(10.963 0.127149 0)
(10.9997 0.14229 0)
(10.9904 0.160406 0)
(11.0259 0.183816 0)
(11.0215 0.204762 0)
(11.0553 0.234798 0)
(11.0527 0.259494 0)
(11.0796 0.299521 0)
(11.0802 0.328213 0)
(11.1104 0.379128 0)
(11.1173 0.416114 0)
(11.1414 0.475655 0)
(11.1554 0.527271 0)
(11.1761 0.595357 0)
(11.2036 0.664323 0)
(11.2215 0.744919 0)
(11.26 0.832134 0)
(11.2725 0.92973 0)
(11.3254 1.03948 0)
(11.334 1.15631 0)
(11.398 1.29426 0)
(11.4 1.43555 0)
(11.4703 1.60482 0)
(11.4617 1.77996 0)
(11.5314 1.9799 0)
(11.5049 2.19842 0)
(11.5596 2.43113 0)
(11.5107 2.6878 0)
(11.5249 2.95944 0)
(11.4601 3.24067 0)
(11.396 3.53038 0)
(9.99913 -0.0030134 0)
(10.0047 -0.0088458 0)
(10.0113 -0.0103429 0)
(10.0181 -0.019542 0)
(10.0342 -0.0181341 0)
(10.0448 -0.0259102 0)
(10.0674 -0.0245199 0)
(10.0817 -0.0273947 0)
(10.1043 -0.0301085 0)
(10.1247 -0.0274813 0)
(10.1444 -0.032974 0)
(10.1697 -0.028713 0)
(10.1874 -0.0327419 0)
(10.2126 -0.0320722 0)
(10.2335 -0.0310391 0)
(10.2556 -0.0348208 0)
(10.2802 -0.030336 0)
(10.3016 -0.0346295 0)
(10.3253 -0.0315133 0)
(10.351 -0.0322178 0)
(10.3693 -0.0329821 0)
(10.4014 -0.029705 0)
(10.4151 -0.0329223 0)
(10.4488 -0.0285352 0)
(10.4643 -0.0307067 0)
(10.494 -0.0279927 0)
(10.5133 -0.0279764 0)
(10.5399 -0.0257616 0)
(10.5606 -0.0260735 0)
(10.587 -0.0214063 0)
(10.6057 -0.0240163 0)
(10.6348 -0.0162646 0)
(10.6516 -0.0198571 0)
(10.679 -0.0119215 0)
(10.6988 -0.012618 0)
(10.7213 -0.00733766 0)
(10.7443 -0.00420455 0)
(10.7618 9.24106e-05 0)
(10.7887 0.00468186 0)
(10.8026 0.0105279 0)
(10.8315 0.0155239 0)
(10.8399 0.0228343 0)
(10.8768 0.0300047 0)
(10.8725 0.0370101 0)
(10.919 0.0478479 0)
(10.9046 0.0558383 0)
(10.9594 0.0693311 0)
(10.9394 0.0784672 0)
(10.994 0.0976487 0)
(10.9749 0.104787 0)
(11.0273 0.133461 0)
(11.0094 0.138004 0)
(11.055 0.175244 0)
(11.0492 0.183964 0)
(11.0849 0.2231 0)
(11.0912 0.242184 0)
(11.1118 0.282017 0)
(11.1295 0.314135 0)
(11.1492 0.356873 0)
(11.1754 0.401503 0)
(11.1919 0.449932 0)
(11.2229 0.508164 0)
(11.2415 0.567059 0)
(11.2822 0.63922 0)
(11.3046 0.711475 0)
(11.3533 0.801326 0)
(11.3757 0.88974 0)
(11.4397 1.00204 0)
(11.4602 1.11218 0)
(11.5383 1.24974 0)
(11.5564 1.39094 0)
(11.6396 1.55927 0)
(11.6584 1.73667 0)
(11.7299 1.94683 0)
(11.7518 2.16688 0)
(11.7852 2.41649 0)
(11.807 2.69951 0)
(11.7803 2.96599 0)
(11.7768 3.31853 0)
(11.6882 3.59803 0)
(9.99878 -0.00632496 0)
(10.0063 -0.0130183 0)
(10.0106 -0.0197182 0)
(10.0204 -0.0322627 0)
(10.0356 -0.0313962 0)
(10.0488 -0.0444151 0)
(10.0716 -0.0401187 0)
(10.0865 -0.0486802 0)
(10.1098 -0.0484045 0)
(10.1314 -0.048575 0)
(10.1494 -0.054399 0)
(10.1785 -0.0486597 0)
(10.1908 -0.0569994 0)
(10.2229 -0.0518584 0)
(10.237 -0.0561777 0)
(10.2655 -0.0560546 0)
(10.2858 -0.0544759 0)
(10.3094 -0.0579426 0)
(10.3339 -0.0545781 0)
(10.3567 -0.0563618 0)
(10.3798 -0.0565637 0)
(10.4064 -0.0527938 0)
(10.4261 -0.0582754 0)
(10.4542 -0.0501387 0)
(10.4755 -0.0569095 0)
(10.4993 -0.0499318 0)
(10.5261 -0.0525588 0)
(10.5437 -0.0499724 0)
(10.5759 -0.047803 0)
(10.5895 -0.0477178 0)
(10.6231 -0.0437628 0)
(10.6369 -0.0430654 0)
(10.6699 -0.0389805 0)
(10.6819 -0.038268 0)
(10.7175 -0.0311918 0)
(10.7249 -0.0334093 0)
(10.7642 -0.0219122 0)
(10.7664 -0.0257308 0)
(10.809 -0.0118874 0)
(10.8097 -0.0149925 0)
(10.8508 -0.000280685 0)
(10.8516 -0.00172638 0)
(10.8935 0.0147442 0)
(10.8899 0.0132431 0)
(10.934 0.0332538 0)
(10.9276 0.0333197 0)
(10.9729 0.0542552 0)
(10.9686 0.0587345 0)
(11.0067 0.0798155 0)
(11.0102 0.0892546 0)
(11.0409 0.1122 0)
(11.0497 0.125508 0)
(11.0736 0.151653 0)
(11.0921 0.172937 0)
(11.1108 0.197526 0)
(11.1366 0.230437 0)
(11.1477 0.255149 0)
(11.179 0.299293 0)
(11.1958 0.329254 0)
(11.2303 0.382079 0)
(11.2491 0.418889 0)
(11.2898 0.484374 0)
(11.3075 0.529753 0)
(11.3656 0.609014 0)
(11.3826 0.668798 0)
(11.4534 0.759837 0)
(11.4751 0.842344 0)
(11.5558 0.94917 0)
(11.5901 1.05767 0)
(11.6742 1.18746 0)
(11.7256 1.33228 0)
(11.8023 1.48781 0)
(11.874 1.68567 0)
(11.9323 1.87034 0)
(12.0128 2.13405 0)
(12.0439 2.36631 0)
(12.1031 2.67709 0)
(12.1033 2.9986 0)
(12.0955 3.31815 0)
(12.0463 3.72533 0)
(9.99722 -0.0105279 0)
(10.0099 -0.0161881 0)
(10.0082 -0.0323916 0)
(10.0258 -0.0438872 0)
(10.0373 -0.0478646 0)
(10.0562 -0.0621121 0)
(10.0785 -0.0574201 0)
(10.0937 -0.0702619 0)
(10.1208 -0.06632 0)
(10.1386 -0.0711386 0)
(10.162 -0.074283 0)
(10.1864 -0.0707106 0)
(10.2028 -0.0797469 0)
(10.2323 -0.0731671 0)
(10.2489 -0.0807592 0)
(10.2751 -0.0775041 0)
(10.2996 -0.0790361 0)
(10.3172 -0.0809263 0)
(10.3505 -0.0776088 0)
(10.3627 -0.0816637 0)
(10.398 -0.0778312 0)
(10.4126 -0.0797448 0)
(10.4434 -0.079068 0)
(10.4628 -0.0770546 0)
(10.4909 -0.078458 0)
(10.5103 -0.0761531 0)
(10.5409 -0.0744377 0)
(10.5555 -0.0762926 0)
(10.5916 -0.0689128 0)
(10.6015 -0.0745851 0)
(10.6392 -0.0641358 0)
(10.6508 -0.069521 0)
(10.6842 -0.0598897 0)
(10.6998 -0.0628169 0)
(10.7293 -0.0535033 0)
(10.7465 -0.0558816 0)
(10.7744 -0.0448928 0)
(10.7915 -0.0469791 0)
(10.8178 -0.0347331 0)
(10.8387 -0.0351739 0)
(10.8578 -0.023315 0)
(10.8854 -0.0201133 0)
(10.8985 -0.00931093 0)
(10.9277 -0.00254919 0)
(10.9403 0.00765531 0)
(10.9668 0.0201591 0)
(10.9829 0.0271616 0)
(11.0078 0.0478808 0)
(11.0218 0.0512673 0)
(11.0502 0.0797584 0)
(11.0609 0.0830626 0)
(11.091 0.115218 0)
(11.101 0.123466 0)
(11.1343 0.159826 0)
(11.1447 0.170309 0)
(11.183 0.214426 0)
(11.1874 0.225969 0)
(11.2334 0.280734 0)
(11.2417 0.297095 0)
(11.2914 0.357422 0)
(11.3061 0.385496 0)
(11.3565 0.449714 0)
(11.3812 0.493826 0)
(11.438 0.563909 0)
(11.4765 0.625812 0)
(11.5348 0.703988 0)
(11.5932 0.7902 0)
(11.6532 0.879712 0)
(11.7351 0.995251 0)
(11.7984 1.10572 0)
(11.9028 1.25399 0)
(11.9682 1.40547 0)
(12.0872 1.58513 0)
(12.1595 1.8077 0)
(12.2691 2.02349 0)
(12.3413 2.32508 0)
(12.4213 2.62264 0)
(12.4525 2.96246 0)
(12.4899 3.39206 0)
(12.4196 3.74719 0)
(9.99687 -0.0157008 0)
(10.0109 -0.0197827 0)
(10.0088 -0.0482449 0)
(10.0308 -0.0558706 0)
(10.0445 -0.0674253 0)
(10.0652 -0.0799133 0)
(10.0917 -0.0763154 0)
(10.1036 -0.0924345 0)
(10.1386 -0.0835446 0)
(10.1483 -0.0958644 0)
(10.1816 -0.0917935 0)
(10.1965 -0.0960795 0)
(10.2215 -0.0996016 0)
(10.245 -0.0972566 0)
(10.2657 -0.103193 0)
(10.2911 -0.100227 0)
(10.3149 -0.102508 0)
(10.3352 -0.104157 0)
(10.3655 -0.0999897 0)
(10.3812 -0.107099 0)
(10.4135 -0.0984369 0)
(10.4314 -0.106861 0)
(10.4589 -0.0996101 0)
(10.4835 -0.103248 0)
(10.5046 -0.101459 0)
(10.5341 -0.0994048 0)
(10.5526 -0.100443 0)
(10.5821 -0.0971208 0)
(10.6022 -0.0963144 0)
(10.6299 -0.0946369 0)
(10.65 -0.0913331 0)
(10.6802 -0.089866 0)
(10.695 -0.0860596 0)
(10.7309 -0.0835268 0)
(10.7399 -0.0792021 0)
(10.7791 -0.0756338 0)
(10.7859 -0.0714009 0)
(10.8248 -0.0646008 0)
(10.8311 -0.0627327 0)
(10.872 -0.050436 0)
(10.8736 -0.0523293 0)
(10.9187 -0.0338347 0)
(10.9169 -0.0387365 0)
(10.9611 -0.0155076 0)
(10.9623 -0.0209719 0)
(11.0002 0.00597651 0)
(11.0085 0.0011203 0)
(11.0418 0.0308549 0)
(11.0514 0.0280055 0)
(11.0853 0.0602126 0)
(11.0944 0.0606955 0)
(11.1283 0.0947275 0)
(11.1401 0.101032 0)
(11.1732 0.136439 0)
(11.1905 0.148379 0)
(11.2225 0.186695 0)
(11.243 0.20371 0)
(11.2747 0.247401 0)
(11.308 0.273056 0)
(11.3343 0.316925 0)
(11.3858 0.357312 0)
(11.4047 0.401716 0)
(11.472 0.458062 0)
(11.4991 0.507973 0)
(11.5755 0.578296 0)
(11.6157 0.638382 0)
(11.7042 0.727266 0)
(11.7585 0.802937 0)
(11.8644 0.912641 0)
(11.9369 1.01342 0)
(12.0601 1.15812 0)
(12.1492 1.27901 0)
(12.2981 1.50104 0)
(12.3835 1.63434 0)
(12.5667 1.96806 0)
(12.6204 2.15271 0)
(12.8079 2.56941 0)
(12.8315 2.91443 0)
(12.9167 3.32703 0)
(12.9307 3.8976 0)
(9.9981 -0.019146 0)
(10.0111 -0.0296435 0)
(10.0122 -0.0653245 0)
(10.0392 -0.072684 0)
(10.0561 -0.0900797 0)
(10.0809 -0.0989711 0)
(10.1089 -0.0996471 0)
(10.1224 -0.112691 0)
(10.1591 -0.105811 0)
(10.1679 -0.118418 0)
(10.2029 -0.113289 0)
(10.2164 -0.121286 0)
(10.2426 -0.120619 0)
(10.2668 -0.123398 0)
(10.2862 -0.124667 0)
(10.3151 -0.125247 0)
(10.3348 -0.125687 0)
(10.3606 -0.127358 0)
(10.3859 -0.12489 0)
(10.4063 -0.129494 0)
(10.4358 -0.123836 0)
(10.455 -0.129773 0)
(10.4833 -0.124618 0)
(10.5061 -0.126772 0)
(10.53 -0.126417 0)
(10.5573 -0.122748 0)
(10.5779 -0.125801 0)
(10.6061 -0.119854 0)
(10.628 -0.122169 0)
(10.6532 -0.116617 0)
(10.6778 -0.11732 0)
(10.7016 -0.111869 0)
(10.7253 -0.110951 0)
(10.7503 -0.106502 0)
(10.7729 -0.102507 0)
(10.7959 -0.0992576 0)
(10.8221 -0.0936918 0)
(10.839 -0.0881201 0)
(10.8701 -0.0843622 0)
(10.8844 -0.0739964 0)
(10.9143 -0.0723992 0)
(10.9305 -0.0590087 0)
(10.9583 -0.0556916 0)
(10.9733 -0.0434454 0)
(11.0047 -0.0343156 0)
(11.0129 -0.024927 0)
(11.0523 -0.00920002 0)
(11.0543 -0.002297 0)
(11.0981 0.0193618 0)
(11.0975 0.0248273 0)
(11.1451 0.0532533 0)
(11.1408 0.0567378 0)
(11.1964 0.0940552 0)
(11.1841 0.0954811 0)
(11.2553 0.139726 0)
(11.2321 0.144191 0)
(11.3157 0.190067 0)
(11.2898 0.204004 0)
(11.3832 0.251953 0)
(11.3602 0.270019 0)
(11.4643 0.330074 0)
(11.4428 0.344364 0)
(11.5591 0.426697 0)
(11.5486 0.43517 0)
(11.6741 0.540891 0)
(11.6809 0.546774 0)
(11.82 0.681818 0)
(11.8418 0.686957 0)
(12.0071 0.855435 0)
(12.0438 0.875839 0)
(12.2389 1.06467 0)
(12.3029 1.15093 0)
(12.5105 1.32214 0)
(12.6405 1.55742 0)
(12.7987 1.6918 0)
(13.0378 2.12645 0)
(13.0906 2.30094 0)
(13.3849 2.89037 0)
(13.343 3.26546 0)
(13.5171 3.8875 0)
(9.99462 -0.023175 0)
(10.018 -0.0447666 0)
(10.0186 -0.0860114 0)
(10.0568 -0.0940652 0)
(10.0763 -0.117152 0)
(10.106 -0.119883 0)
(10.1364 -0.12845 0)
(10.1495 -0.133021 0)
(10.1888 -0.135305 0)
(10.1938 -0.141652 0)
(10.2335 -0.142437 0)
(10.24 -0.14848 0)
(10.2759 -0.14764 0)
(10.2881 -0.152957 0)
(10.3231 -0.150263 0)
(10.3339 -0.154837 0)
(10.3746 -0.152129 0)
(10.3769 -0.15532 0)
(10.4271 -0.153167 0)
(10.4207 -0.156408 0)
(10.4771 -0.15227 0)
(10.4674 -0.158011 0)
(10.5242 -0.15062 0)
(10.5156 -0.157918 0)
(10.5702 -0.149355 0)
(10.5634 -0.155892 0)
(10.6162 -0.147409 0)
(10.6092 -0.152374 0)
(10.663 -0.145104 0)
(10.6531 -0.146133 0)
(10.7093 -0.142753 0)
(10.6966 -0.138738 0)
(10.7543 -0.136709 0)
(10.7384 -0.13402 0)
(10.7997 -0.125163 0)
(10.7767 -0.129696 0)
(10.8459 -0.112737 0)
(10.8136 -0.120248 0)
(10.8887 -0.101884 0)
(10.8544 -0.105986 0)
(10.9255 -0.0896445 0)
(10.8975 -0.090507 0)
(10.9618 -0.0728503 0)
(10.9365 -0.0736553 0)
(11.0027 -0.0529869 0)
(10.9709 -0.0524701 0)
(11.0467 -0.030881 0)
(11.0068 -0.0269408 0)
(11.0896 -0.00553415 0)
(11.0463 0.00198423 0)
(11.1342 0.0243098 0)
(11.0881 0.0349472 0)
(11.1842 0.0602331 0)
(11.1323 0.072393 0)
(11.2428 0.102919 0)
(11.1838 0.116301 0)
(11.3048 0.14959 0)
(11.2494 0.171222 0)
(11.3752 0.204199 0)
(11.3302 0.232595 0)
(11.4625 0.27284 0)
(11.4293 0.300943 0)
(11.5641 0.354139 0)
(11.5601 0.38761 0)
(11.6843 0.443057 0)
(11.7291 0.501043 0)
(11.8346 0.540923 0)
(11.9415 0.655539 0)
(12.0233 0.6524 0)
(12.2131 0.856737 0)
(12.266 0.808591 0)
(12.5442 1.09244 0)
(12.6025 1.08128 0)
(12.9213 1.35968 0)
(13.0708 1.5366 0)
(13.3265 1.76622 0)
(13.6313 2.21457 0)
(13.7481 2.53817 0)
(14.0901 3.21811 0)
(14.0639 3.83129 0)
(9.9903 -0.0305472 0)
(10.0275 -0.0651643 0)
(10.0344 -0.101337 0)
(10.0815 -0.114921 0)