/*--------------------------------*- C++ -*----------------------------------*\
| =========                 |                                                 |
| \\      /  F ield         | OpenFOAM: The Open Source CFD Toolbox           |
|  \\    /   O peration     | Version:  2306                                  |
|   \\  /    A nd           | Website:  www.openfoam.com                      |
|    \\/     M anipulation  |                                                 |
\*---------------------------------------------------------------------------*/
FoamFile
{
    version     2.0;
    format      ascii;
    arch        "LSB;label=32;scalar=64";
    class       volScalarField;
    location    "0.325";
    object      p;
}
// * * * * * * * * * * * * * * * * * * * * * * * * * * * * * * * * * * * * * //

dimensions      [0 2 -2 0 0 0 0];

internalField   nonuniform List<scalar> 
17600
(
425.14
423.096
421.319
420.088
419.325
418.818
418.401
417.994
417.576
417.153
416.733
416.32
415.917
415.52
415.128
414.741
414.36
413.988
413.627
413.28
412.952
412.645
412.361
412.102
411.868
411.661
411.478
411.319
411.182
411.063
410.96
410.871
410.792
410.721
410.656
410.595
410.536
410.479
410.421
410.363
410.304
410.243
410.181
410.117
410.052
409.985
409.916
409.847
409.776
409.705
409.633
409.561
409.488
409.416
409.343
409.271
409.199
409.128
409.057
408.988
408.918
408.85
408.783
408.717
408.651
408.587
408.524
408.462
408.402
408.343
408.285
408.228
408.173
408.12
408.068
408.017
407.968
407.921
407.876
407.832
407.79
407.751
407.713
407.677
407.643
407.612
407.582
407.556
407.531
407.509
407.49
407.474
407.46
407.45
407.442
407.438
407.437
407.439
407.445
407.455
407.469
407.486
407.507
407.533
407.563
407.597
407.636
407.679
407.727
407.78
407.838
407.9
407.968
408.041
408.118
408.201
408.289
408.382
408.48
408.582
408.689
408.8
408.916
409.035
409.158
409.284
409.412
409.543
409.676
409.809
409.943
410.077
410.209
410.34
410.469
410.595
410.718
410.836
410.949
411.058
411.161
411.257
411.347
411.431
411.507
411.576
411.638
411.693
411.742
411.784
411.819
411.849
411.872
411.889
411.901
411.909
411.911
411.909
411.903
411.893
422.411
421.641
420.715
419.851
419.16
418.637
418.217
417.835
417.455
417.066
416.672
416.278
415.888
415.503
415.124
414.75
414.383
414.023
413.674
413.339
413.021
412.721
412.443
412.187
411.956
411.748
411.564
411.402
411.26
411.137
411.029
410.934
410.85
410.774
410.703
410.637
410.574
410.512
410.451
410.39
410.328
410.265
410.201
410.135
410.068
410
409.93
409.86
409.788
409.716
409.644
409.571
409.498
409.425
409.352
409.28
409.208
409.136
409.065
408.995
408.926
408.858
408.79
408.724
408.658
408.594
408.531
408.469
408.408
408.349
408.291
408.234
408.179
408.126
408.074
408.023
407.974
407.927
407.881
407.838
407.796
407.756
407.718
407.682
407.649
407.617
407.588
407.561
407.537
407.515
407.496
407.48
407.466
407.456
407.448
407.444
407.443
407.446
407.452
407.462
407.476
407.493
407.515
407.541
407.571
407.606
407.645
407.688
407.737
407.79
407.849
407.912
407.98
408.054
408.132
408.216
408.304
408.398
408.497
408.6
408.708
408.82
408.937
409.057
409.181
409.308
409.437
409.569
409.702
409.836
409.97
410.103
410.236
410.367
410.495
410.62
410.741
410.858
410.97
411.077
411.179
411.275
411.364
411.446
411.522
411.59
411.651
411.705
411.752
411.793
411.827
411.855
411.877
411.894
411.905
411.911
411.913
411.91
411.904
411.893
421.107
420.757
420.228
419.615
419.024
418.51
418.077
417.697
417.336
416.975
416.607
416.235
415.863
415.495
415.133
414.777
414.428
414.087
413.757
413.439
413.136
412.848
412.579
412.33
412.101
411.893
411.706
411.538
411.389
411.256
411.138
411.033
410.938
410.851
410.772
410.697
410.625
410.556
410.488
410.421
410.353
410.286
410.218
410.149
410.08
410.009
409.938
409.867
409.794
409.722
409.649
409.576
409.502
409.429
409.356
409.284
409.211
409.14
409.069
408.998
408.929
408.86
408.793
408.726
408.66
408.596
408.533
408.47
408.41
408.35
408.292
408.235
408.179
408.125
408.073
408.022
407.973
407.925
407.879
407.835
407.793
407.753
407.714
407.678
407.644
407.612
407.582
407.555
407.53
407.508
407.488
407.471
407.457
407.446
407.438
407.433
407.431
407.433
407.438
407.447
407.46
407.477
407.498
407.523
407.552
407.586
407.624
407.667
407.715
407.767
407.825
407.887
407.955
408.027
408.105
408.188
408.276
408.369
408.468
408.571
408.679
408.791
408.908
409.029
409.153
409.281
409.412
409.545
409.68
409.816
409.953
410.089
410.225
410.359
410.491
410.62
410.744
410.865
410.98
411.09
411.193
411.29
411.379
411.461
411.536
411.603
411.663
411.716
411.763
411.804
411.839
411.867
411.888
411.904
411.914
411.92
411.92
411.916
411.909
411.898
420.203
420.011
419.678
419.242
418.768
418.312
417.901
417.533
417.189
416.853
416.513
416.167
415.82
415.473
415.131
414.795
414.466
414.144
413.833
413.532
413.243
412.969
412.71
412.468
412.244
412.038
411.85
411.679
411.524
411.385
411.259
411.144
411.04
410.944
410.855
410.771
410.691
410.614
410.539
410.465
410.392
410.319
410.247
410.175
410.102
410.029
409.956
409.882
409.808
409.734
409.66
409.586
409.512
409.438
409.364
409.291
409.218
409.146
409.074
409.003
408.933
408.864
408.796
408.729
408.663
408.598
408.534
408.471
408.41
408.35
408.291
408.233
408.177
408.122
408.069
408.018
407.968
407.919
407.872
407.828
407.784
407.743
407.704
407.666
407.631
407.598
407.567
407.539
407.513
407.489
407.468
407.45
407.434
407.421
407.412
407.405
407.402
407.402
407.405
407.412
407.423
407.438
407.457
407.479
407.506
407.537
407.573
407.613
407.658
407.708
407.763
407.823
407.887
407.957
408.032
408.112
408.198
408.288
408.384
408.485
408.59
408.701
408.815
408.935
409.058
409.185
409.316
409.449
409.584
409.722
409.861
410
410.139
410.277
410.414
410.548
410.679
410.807
410.929
411.047
411.158
411.264
411.361
411.452
411.534
411.608
411.673
411.73
411.778
411.818
411.851
411.877
411.898
411.913
411.924
411.93
411.931
411.927
411.919
411.907
419.517
419.392
419.164
418.847
418.476
418.091
417.72
417.374
417.049
416.734
416.418
416.097
415.774
415.449
415.127
414.81
414.499
414.195
413.9
413.614
413.339
413.077
412.828
412.593
412.374
412.17
411.982
411.81
411.651
411.506
411.374
411.252
411.14
411.036
410.938
410.846
410.759
410.674
410.592
410.513
410.434
410.357
410.28
410.204
410.128
410.052
409.976
409.9
409.824
409.749
409.673
409.597
409.522
409.447
409.373
409.298
409.225
409.152
409.08
409.008
408.938
408.868
408.799
408.731
408.665
408.599
408.534
408.471
408.409
408.348
408.288
408.23
408.173
408.117
408.063
408.01
407.959
407.91
407.862
407.816
407.771
407.728
407.688
407.649
407.612
407.577
407.545
407.515
407.487
407.461
407.438
407.417
407.399
407.384
407.372
407.363
407.357
407.354
407.355
407.358
407.366
407.377
407.392
407.411
407.434
407.461
407.492
407.528
407.569
407.614
407.663
407.718
407.777
407.842
407.911
407.986
408.065
408.15
408.24
408.335
408.434
408.539
408.648
408.762
408.88
409.003
409.128
409.258
409.39
409.525
409.661
409.799
409.938
410.077
410.216
410.354
410.49
410.624
410.755
410.882
411.005
411.122
411.234
411.339
411.437
411.526
411.607
411.68
411.743
411.798
411.844
411.881
411.908
411.926
411.936
411.94
411.939
411.934
411.927
411.918
418.969
418.88
418.713
418.475
418.184
417.864
417.538
417.222
416.917
416.62
416.325
416.027
415.725
415.422
415.119
414.819
414.525
414.237
413.957
413.685
413.422
413.17
412.93
412.702
412.487
412.286
412.099
411.925
411.764
411.615
411.477
411.35
411.231
411.12
411.015
410.916
410.822
410.731
410.644
410.559
410.475
410.393
410.313
410.233
410.153
410.075
409.996
409.918
409.84
409.763
409.686
409.609
409.532
409.456
409.381
409.306
409.231
409.158
409.085
409.013
408.941
408.871
408.801
408.733
408.665
408.599
408.534
408.469
408.406
408.344
408.284
408.224
408.166
408.11
408.054
408.001
407.948
407.897
407.848
407.8
407.754
407.71
407.668
407.627
407.588
407.552
407.517
407.485
407.454
407.426
407.4
407.377
407.357
407.338
407.323
407.311
407.301
407.294
407.291
407.291
407.294
407.301
407.311
407.325
407.342
407.364
407.39
407.419
407.453
407.492
407.535
407.582
407.634
407.69
407.752
407.818
407.889
407.965
408.045
408.131
408.221
408.316
408.416
408.52
408.629
408.741
408.858
408.978
409.102
409.228
409.358
409.489
409.622
409.757
409.893
410.029
410.166
410.301
410.436
410.568
410.699
410.826
410.949
411.069
411.183
411.292
411.395
411.49
411.579
411.659
411.73
411.791
411.841
411.882
411.913
411.934
411.945
411.946
411.94
411.927
418.521
418.452
418.324
418.139
417.905
417.639
417.357
417.071
416.789
416.511
416.235
415.956
415.674
415.39
415.105
414.822
414.543
414.27
414.002
413.742
413.491
413.248
413.016
412.794
412.584
412.386
412.2
412.026
411.863
411.711
411.569
411.437
411.312
411.196
411.085
410.981
410.881
410.785
410.692
410.602
410.514
410.428
410.344
410.26
410.178
410.096
410.016
409.935
409.856
409.776
409.698
409.619
409.542
409.465
409.388
409.312
409.237
409.163
409.089
409.016
408.944
408.873
408.803
408.733
408.665
408.598
408.532
408.467
408.403
408.34
408.278
408.218
408.159
408.101
408.044
407.989
407.935
407.883
407.832
407.783
407.735
407.689
407.645
407.602
407.562
407.523
407.486
407.451
407.418
407.387
407.359
407.332
407.309
407.287
407.268
407.252
407.238
407.228
407.22
407.215
407.213
407.215
407.219
407.227
407.239
407.254
407.273
407.296
407.322
407.353
407.388
407.426
407.469
407.517
407.568
407.624
407.685
407.749
407.819
407.892
407.97
408.053
408.14
408.231
408.326
408.425
408.528
408.635
408.745
408.858
408.975
409.094
409.216
409.339
409.465
409.593
409.722
409.852
409.982
410.113
410.244
410.374
410.503
410.631
410.757
410.88
411.001
411.117
411.23
411.337
411.438
411.532
411.618
411.694
411.761
411.817
411.86
411.891
411.912
411.922
418.146
418.092
417.989
417.839
417.648
417.424
417.179
416.924
416.665
416.406
416.147
415.885
415.621
415.355
415.087
414.819
414.555
414.294
414.039
413.79
413.548
413.314
413.089
412.873
412.667
412.472
412.288
412.113
411.949
411.795
411.651
411.514
411.386
411.264
411.149
411.04
410.935
410.834
410.737
410.642
410.55
410.461
410.373
410.286
410.201
410.117
410.034
409.952
409.87
409.789
409.709
409.63
409.551
409.473
409.395
409.318
409.242
409.167
409.092
409.019
408.946
408.874
408.803
408.733
408.664
408.596
408.529
408.463
408.398
408.334
408.271
408.21
408.149
408.09
408.032
407.976
407.921
407.867
407.815
407.764
407.714
407.667
407.62
407.576
407.533
407.492
407.452
407.415
407.379
407.346
407.314
407.285
407.257
407.232
407.21
407.189
407.172
407.156
407.144
407.134
407.127
407.123
407.122
407.124
407.129
407.138
407.149
407.164
407.183
407.205
407.231
407.26
407.293
407.33
407.371
407.416
407.465
407.517
407.574
407.634
407.698
407.766
407.838
407.914
407.994
408.077
408.163
408.253
408.346
408.443
408.542
408.644
408.749
408.856
408.966
409.079
409.193
409.31
409.428
409.548
409.67
409.794
409.919
410.046
410.174
410.303
410.432
410.561
410.69
410.818
410.945
411.068
411.188
411.303
411.411
411.511
411.602
411.681
411.748
411.801
417.83
417.785
417.7
417.576
417.415
417.224
417.01
416.782
416.546
416.305
416.062
415.817
415.569
415.318
415.065
414.812
414.56
414.312
414.067
413.828
413.595
413.369
413.151
412.94
412.739
412.547
412.364
412.19
412.025
411.87
411.723
411.583
411.451
411.326
411.207
411.093
410.984
410.879
410.778
410.68
410.584
410.491
410.4
410.311
410.223
410.137
410.051
409.967
409.884
409.801
409.72
409.639
409.559
409.48
409.401
409.323
409.246
409.17
409.095
409.02
408.947
408.874
408.802
408.731
408.661
408.592
408.524
408.457
408.391
408.327
408.263
408.2
408.139
408.078
408.019
407.961
407.905
407.85
407.796
407.743
407.692
407.642
407.594
407.547
407.502
407.459
407.417
407.377
407.338
407.302
407.267
407.234
407.204
407.175
407.149
407.124
407.102
407.083
407.065
407.05
407.038
407.028
407.021
407.017
407.015
407.017
407.021
407.028
407.038
407.052
407.068
407.088
407.111
407.137
407.167
407.2
407.236
407.276
407.319
407.365
407.415
407.468
407.524
407.583
407.646
407.711
407.779
407.851
407.925
408.002
408.081
408.164
408.248
408.336
408.425
408.517
408.612
408.71
408.81
408.912
409.018
409.127
409.239
409.354
409.473
409.596
409.722
409.852
409.986
410.123
410.264
410.407
410.551
410.696
410.841
410.983
411.12
411.251
411.374
411.485
417.56
417.522
417.45
417.344
417.207
417.041
416.853
416.648
416.432
416.21
415.983
415.752
415.518
415.281
415.042
414.802
414.562
414.324
414.09
413.86
413.635
413.416
413.203
412.998
412.8
412.611
412.429
412.256
412.092
411.935
411.786
411.645
411.51
411.382
411.259
411.142
411.029
410.92
410.816
410.714
410.616
410.52
410.426
410.334
410.243
410.155
410.067
409.981
409.896
409.812
409.729
409.647
409.566
409.486
409.406
409.327
409.25
409.173
409.096
409.021
408.947
408.873
408.8
408.729
408.658
408.588
408.519
408.451
408.384
408.318
408.253
408.19
408.127
408.065
408.005
407.946
407.888
407.831
407.775
407.721
407.668
407.616
407.566
407.517
407.47
407.424
407.38
407.337
407.296
407.256
407.219
407.183
407.148
407.116
407.086
407.057
407.031
407.006
406.984
406.964
406.946
406.931
406.918
406.907
406.898
406.893
406.889
406.889
406.89
406.895
406.902
406.912
406.925
406.94
406.959
406.98
407.003
407.03
407.059
407.091
407.126
407.163
407.203
407.245
407.29
407.337
407.386
407.438
407.492
407.548
407.607
407.667
407.73
407.794
407.861
407.931
408.002
408.077
408.154
408.234
408.317
408.405
408.496
408.593
408.694
408.801
408.914
409.033
409.159
409.292
409.433
409.581
409.736
409.898
410.065
410.237
410.411
410.586
410.759
410.927
417.33
417.297
417.235
417.143
417.022
416.876
416.709
416.524
416.327
416.121
415.908
415.691
415.47
415.245
415.018
414.789
414.56
414.332
414.107
413.885
413.667
413.454
413.247
413.047
412.853
412.666
412.486
412.314
412.149
411.992
411.842
411.698
411.561
411.431
411.305
411.185
411.069
410.957
410.85
410.745
410.644
410.545
410.449
410.354
410.262
410.171
410.082
409.994
409.908
409.822
409.738
409.654
409.572
409.491
409.41
409.33
409.252
409.174
409.097
409.021
408.945
408.871
408.797
408.725
408.653
408.582
408.513
408.444
408.376
408.309
408.243
408.178
408.114
408.051
407.99
407.929
407.869
407.811
407.754
407.698
407.643
407.589
407.537
407.486
407.436
407.388
407.341
407.296
407.252
407.209
407.168
407.129
407.091
407.055
407.021
406.988
406.957
406.928
406.901
406.876
406.853
406.831
406.812
406.795
406.78
406.766
406.756
406.747
406.74
406.736
406.734
406.734
406.736
406.741
406.748
406.756
406.768
406.781
406.796
406.814
406.833
406.854
406.878
406.903
406.93
406.958
406.988
407.02
407.053
407.088
407.125
407.162
407.202
407.243
407.285
407.33
407.376
407.425
407.476
407.531
407.589
407.651
407.717
407.788
407.866
407.949
408.041
408.14
408.248
408.367
408.495
408.635
408.786
408.948
409.122
409.307
409.502
409.706
409.916
410.129
417.133
417.105
417.049
416.968
416.861
416.73
416.58
416.412
416.23
416.039
415.839
415.634
415.424
415.211
414.994
414.776
414.556
414.337
414.12
413.905
413.694
413.487
413.284
413.088
412.897
412.712
412.535
412.363
412.199
412.041
411.89
411.745
411.607
411.473
411.346
411.223
411.105
410.99
410.88
410.773
410.669
410.568
410.469
410.373
410.278
410.186
410.095
410.005
409.917
409.831
409.745
409.661
409.577
409.495
409.413
409.333
409.253
409.174
409.096
409.019
408.943
408.868
408.794
408.72
408.648
408.576
408.505
408.435
408.366
408.298
408.231
408.165
408.1
408.036
407.973
407.911
407.85
407.79
407.731
407.673
407.617
407.561
407.507
407.454
407.402
407.351
407.301
407.253
407.206
407.161
407.117
407.074
407.033
406.993
406.955
406.918
406.882
406.849
406.817
406.786
406.757
406.73
406.705
406.681
406.659
406.639
406.62
406.603
406.588
406.575
406.563
406.554
406.546
406.539
406.534
406.531
406.53
406.53
406.531
406.534
406.538
406.544
406.55
406.558
406.567
406.577
406.587
406.599
406.611
406.624
406.638
406.653
406.668
406.685
406.702
406.721
406.741
406.762
406.786
406.813
406.842
406.876
406.914
406.956
407.005
407.061
407.125
407.198
407.282
407.376
407.483
407.604
407.739
407.889
408.056
408.238
408.437
408.652
408.88
409.121
416.966
416.941
416.891
416.818
416.721
416.603
416.465
416.311
416.143
415.964
415.777
415.583
415.383
415.179
414.971
414.762
414.551
414.339
414.129
413.921
413.715
413.513
413.315
413.122
412.934
412.752
412.576
412.405
412.241
412.083
411.932
411.786
411.646
411.511
411.381
411.256
411.136
411.019
410.907
410.797
410.691
410.588
410.487
410.389
410.293
410.199
410.106
410.015
409.926
409.838
409.751
409.665
409.581
409.497
409.415
409.334
409.253
409.174
409.095
409.017
408.94
408.864
408.789
408.715
408.641
408.569
408.497
408.426
408.356
408.287
408.219
408.152
408.085
408.02
407.955
407.892
407.829
407.768
407.707
407.648
407.589
407.532
407.475
407.42
407.366
407.313
407.26
407.21
407.16
407.111
407.064
407.018
406.973
406.929
406.887
406.846
406.806
406.768
406.731
406.695
406.66
406.627
406.596
406.566
406.537
406.509
406.483
406.458
406.435
406.412
406.392
406.372
406.353
406.336
406.32
406.305
406.291
406.277
406.265
406.253
406.242
406.232
406.222
406.212
406.203
406.194
406.185
406.176
406.167
406.158
406.149
406.14
406.131
406.122
406.114
406.106
406.098
406.092
406.087
406.084
406.084
406.087
406.093
406.105
406.123
406.147
406.18
406.222
406.275
406.34
406.419
406.513
406.623
406.751
406.899
407.066
407.255
407.464
407.695
407.946
416.826
416.802
416.757
416.69
416.602
416.493
416.366
416.223
416.067
415.898
415.721
415.536
415.345
415.15
414.95
414.748
414.544
414.34
414.135
413.933
413.732
413.534
413.34
413.15
412.965
412.785
412.61
412.441
412.277
412.119
411.967
411.82
411.679
411.543
411.411
411.285
411.162
411.044
410.929
410.818
410.71
410.605
410.503
410.403
410.305
410.209
410.116
410.023
409.933
409.844
409.756
409.669
409.584
409.499
409.416
409.334
409.252
409.172
409.092
409.014
408.936
408.859
408.783
408.708
408.634
408.56
408.488
408.416
408.345
408.275
408.205
408.137
408.069
408.003
407.937
407.872
407.808
407.745
407.683
407.621
407.561
407.501
407.443
407.385
407.329
407.273
407.218
407.165
407.112
407.061
407.01
406.96
406.912
406.864
406.818
406.773
406.729
406.685
406.643
406.602
406.562
406.524
406.486
406.449
406.413
406.378
406.345
406.312
406.28
406.249
406.219
406.189
406.16
406.132
406.104
406.077
406.05
406.024
405.998
405.971
405.945
405.919
405.892
405.865
405.838
405.81
405.781
405.751
405.721
405.69
405.658
405.625
405.591
405.557
405.521
405.486
405.45
405.415
405.38
405.346
405.314
405.285
405.259
405.237
405.221
405.211
405.21
405.217
405.236
405.267
405.312
405.374
405.453
405.552
405.672
405.816
405.983
406.176
406.395
406.641
416.709
416.687
416.645
416.583
416.501
416.4
416.282
416.148
416.001
415.841
415.672
415.496
415.312
415.124
414.931
414.735
414.538
414.339
414.14
413.942
413.745
413.551
413.36
413.173
412.99
412.812
412.638
412.47
412.307
412.149
411.996
411.849
411.706
411.569
411.436
411.308
411.185
411.065
410.949
410.836
410.726
410.62
410.516
410.414
410.315
410.218
410.123
410.03
409.938
409.848
409.759
409.671
409.585
409.5
409.416
409.332
409.25
409.169
409.089
409.009
408.931
408.853
408.776
408.7
408.625
408.551
408.477
408.405
408.333
408.261
408.191
408.121
408.053
407.985
407.917
407.851
407.786
407.721
407.657
407.594
407.531
407.47
407.409
407.35
407.291
407.233
407.175
407.119
407.063
407.009
406.955
406.902
406.85
406.799
406.748
406.699
406.65
406.602
406.555
406.509
406.463
406.419
406.375
406.332
406.289
406.247
406.206
406.165
406.124
406.084
406.045
406.006
405.966
405.927
405.888
405.849
405.81
405.77
405.73
405.689
405.648
405.605
405.562
405.518
405.472
405.425
405.377
405.326
405.274
405.221
405.165
405.108
405.049
404.988
404.926
404.862
404.797
404.732
404.666
404.6
404.535
404.472
404.412
404.355
404.302
404.256
404.217
404.187
404.168
404.161
404.169
404.194
404.237
404.301
404.388
404.5
404.639
404.807
405.005
405.234
416.614
416.593
416.554
416.496
416.419
416.324
416.212
416.086
415.945
415.793
415.631
415.461
415.284
415.102
414.915
414.724
414.531
414.337
414.142
413.948
413.755
413.564
413.376
413.191
413.01
412.833
412.661
412.493
412.33
412.172
412.02
411.872
411.729
411.59
411.457
411.328
411.203
411.081
410.964
410.85
410.739
410.631
410.526
410.423
410.323
410.225
410.129
410.034
409.942
409.85
409.761
409.672
409.585
409.499
409.414
409.33
409.247
409.165
409.084
409.004
408.925
408.847
408.769
408.692
408.616
408.541
408.466
408.393
408.32
408.247
408.176
408.105
408.035
407.966
407.897
407.829
407.762
407.696
407.63
407.565
407.501
407.438
407.375
407.313
407.252
407.191
407.131
407.072
407.014
406.956
406.899
406.843
406.787
406.732
406.678
406.624
406.571
406.518
406.466
406.415
406.364
406.313
406.263
406.213
406.164
406.115
406.066
406.017
405.968
405.92
405.871
405.822
405.772
405.722
405.672
405.621
405.569
405.516
405.462
405.407
405.351
405.292
405.232
405.171
405.107
405.041
404.972
404.901
404.827
404.751
404.672
404.59
404.505
404.418
404.328
404.235
404.14
404.044
403.945
403.846
403.747
403.649
403.551
403.457
403.366
403.281
403.202
403.131
403.071
403.024
402.99
402.974
402.977
403.001
403.05
403.125
403.23
403.365
403.534
403.739
416.539
416.52
416.483
416.427
416.354
416.264
416.157
416.036
415.901
415.755
415.598
415.433
415.261
415.083
414.901
414.715
414.526
414.335
414.144
413.953
413.763
413.574
413.388
413.205
413.026
412.85
412.678
412.511
412.348
412.191
412.038
411.889
411.746
411.607
411.473
411.342
411.216
411.094
410.976
410.861
410.749
410.64
410.534
410.43
410.329
410.229
410.132
410.037
409.943
409.851
409.761
409.672
409.584
409.497
409.411
409.327
409.243
409.161
409.079
408.998
408.918
408.839
408.76
408.683
408.606
408.53
408.454
408.38
408.306
408.232
408.16
408.088
408.017
407.946
407.876
407.807
407.738
407.67
407.603
407.536
407.47
407.405
407.34
407.276
407.212
407.149
407.087
407.025
406.964
406.903
406.843
406.783
406.724
406.665
406.606
406.548
406.491
406.434
406.377
406.32
406.264
406.207
406.151
406.095
406.039
405.982
405.926
405.869
405.812
405.755
405.697
405.638
405.578
405.518
405.456
405.393
405.329
405.263
405.195
405.126
405.054
404.98
404.903
404.824
404.742
404.657
404.568
404.476
404.381
404.282
404.179
404.072
403.961
403.846
403.727
403.605
403.48
403.351
403.219
403.086
402.95
402.815
402.679
402.545
402.413
402.286
402.164
402.05
401.946
401.853
401.775
401.714
401.672
401.652
401.658
401.692
401.756
401.854
401.989
402.162
416.484
416.466
416.43
416.376
416.306
416.219
416.116
415.998
415.868
415.725
415.573
415.412
415.244
415.069
414.89
414.707
414.521
414.333
414.145
413.956
413.768
413.581
413.397
413.215
413.036
412.862
412.691
412.524
412.362
412.204
412.051
411.902
411.758
411.619
411.484
411.353
411.226
411.103
410.984
410.868
410.755
410.645
410.538
410.434
410.332
410.232
410.134
410.038
409.944
409.851
409.76
409.67
409.581
409.494
409.408
409.322
409.238
409.155
409.072
408.991
408.91
408.83
408.751
408.673
408.595
408.518
408.442
408.366
408.291
408.217
408.143
408.07
407.997
407.926
407.854
407.784
407.714
407.644
407.575
407.507
407.439
407.371
407.304
407.238
407.172
407.107
407.042
406.977
406.913
406.849
406.786
406.722
406.66
406.597
406.535
406.473
406.411
406.349
406.287
406.225
406.163
406.101
406.039
405.976
405.913
405.85
405.786
405.722
405.656
405.59
405.523
405.455
405.385
405.314
405.241
405.166
405.09
405.011
404.929
404.845
404.759
404.669
404.576
404.479
404.379
404.274
404.166
404.053
403.935
403.813
403.686
403.554
403.416
403.274
403.126
402.973
402.816
402.654
402.488
402.318
402.145
401.97
401.794
401.618
401.443
401.271
401.104
400.943
400.79
400.649
400.522
400.411
400.32
400.252
400.21
400.196
400.216
400.272
400.366
400.503
416.448
416.43
416.395
416.343
416.274
416.189
416.088
415.973
415.845
415.706
415.556
415.398
415.232
415.06
414.883
414.701
414.517
414.332
414.144
413.957
413.771
413.585
413.402
413.221
413.043
412.869
412.698
412.532
412.37
412.212
412.059
411.91
411.766
411.626
411.49
411.359
411.232
411.108
410.988
410.872
410.758
410.648
410.54
410.435
410.332
410.232
410.133
410.037
409.942
409.849
409.757
409.666
409.577
409.489
409.403
409.317
409.232
409.148
409.065
408.983
408.901
408.821
408.741
408.662
408.583
408.505
408.428
408.352
408.276
408.2
408.125
408.051
407.978
407.904
407.832
407.76
407.688
407.617
407.546
407.476
407.406
407.337
407.268
407.2
407.131
407.064
406.996
406.929
406.862
406.795
406.728
406.662
406.595
406.529
406.463
406.397
406.33
406.264
406.197
406.13
406.063
405.995
405.927
405.858
405.788
405.718
405.647
405.575
405.501
405.426
405.35
405.272
405.192
405.111
405.027
404.941
404.852
404.76
404.665
404.567
404.465
404.36
404.25
404.136
404.018
403.894
403.766
403.632
403.492
403.346
403.195
403.037
402.872
402.702
402.524
402.34
402.15
401.954
401.752
401.545
401.333
401.117
400.898
400.678
400.457
400.237
400.02
399.809
399.605
399.411
399.23
399.065
398.919
398.797
398.701
398.636
398.606
398.613
398.662
398.757
416.429
416.411
416.377
416.326
416.258
416.173
416.074
415.96
415.834
415.696
415.547
415.39
415.225
415.054
414.878
414.698
414.515
414.33
414.144
413.958
413.772
413.587
413.404
413.223
413.046
412.872
412.701
412.535
412.373
412.215
412.062
411.913
411.769
411.628
411.493
411.361
411.233
411.109
410.989
410.872
410.758
410.647
410.539
410.434
410.331
410.23
410.131
410.034
409.939
409.845
409.753
409.662
409.572
409.484
409.396
409.31
409.225
409.14
409.057
408.974
408.892
408.81
408.73
408.65
408.571
408.492
408.414
408.336
408.26
408.183
408.107
408.032
407.957
407.883
407.809
407.735
407.662
407.59
407.517
407.445
407.374
407.303
407.232
407.161
407.09
407.02
406.95
406.88
406.81
406.74
406.671
406.601
406.531
406.461
406.391
406.32
406.25
406.179
406.107
406.035
405.963
405.889
405.815
405.74
405.664
405.587
405.508
405.428
405.347
405.264
405.178
405.091
405.001
404.909
404.815
404.717
404.616
404.511
404.403
404.291
404.174
404.053
403.927
403.796
403.66
403.517
403.368
403.213
403.051
402.882
402.706
402.522
402.33
402.131
401.923
401.708
401.484
401.253
401.014
400.767
400.515
400.256
399.992
399.725
399.455
399.184
398.914
398.648
398.388
398.136
397.896
397.672
397.467
397.285
397.13
397.006
396.919
396.872
396.87
396.917
416.429
416.411
416.376
416.325
416.257
416.173
416.073
415.96
415.833
415.695
415.547
415.389
415.225
415.054
414.878
414.698
414.515
414.329
414.143
413.957
413.771
413.586
413.403
413.222
413.045
412.871
412.7
412.534
412.371
412.214
412.06
411.911
411.767
411.626
411.49
411.359
411.231
411.107
410.986
410.869
410.755
410.644
410.536
410.43
410.327
410.226
410.126
410.029
409.933
409.839
409.747
409.656
409.566
409.477
409.389
409.302
409.216
409.131
409.047
408.964
408.881
408.799
408.718
408.637
408.557
408.478
408.399
408.321
408.243
408.165
408.089
408.012
407.936
407.86
407.785
407.71
407.636
407.562
407.488
407.414
407.341
407.267
407.194
407.122
407.049
406.976
406.904
406.831
406.758
406.686
406.613
406.54
406.466
406.393
406.319
406.244
406.169
406.094
406.018
405.941
405.863
405.784
405.704
405.623
405.54
405.456
405.371
405.283
405.194
405.102
405.008
404.912
404.812
404.71
404.604
404.495
404.382
404.265
404.144
404.018
403.887
403.75
403.608
403.46
403.305
403.143
402.975
402.799
402.614
402.422
402.221
402.011
401.792
401.563
401.325
401.076
400.818
400.551
400.273
399.987
399.691
399.388
399.077
398.759
398.437
398.112
397.786
397.461
397.139
396.825
396.521
396.231
395.959
395.711
395.49
395.301
395.15
395.042
394.982
394.975
416.446
416.428
416.393
416.341
416.272
416.187
416.087
415.972
415.844
415.704
415.554
415.396
415.23
415.058
414.881
414.699
414.515
414.329
414.142
413.955
413.768
413.582
413.399
413.218
413.04
412.865
412.694
412.528
412.365
412.207
412.054
411.905
411.76
411.62
411.484
411.352
411.224
411.1
410.98
410.863
410.749
410.638
410.53
410.424
410.32
410.219
410.12
410.022
409.927
409.832
409.74
409.648
409.558
409.469
409.38
409.293
409.207
409.122
409.037
408.953
408.87
408.787
408.705
408.624
408.543
408.463
408.383
408.304
408.225
408.147
408.069
407.992
407.914
407.838
407.761
407.685
407.609
407.533
407.458
407.382
407.307
407.232
407.157
407.082
407.007
406.932
406.857
406.782
406.707
406.631
406.555
406.479
406.402
406.325
406.247
406.169
406.09
406.01
405.929
405.847
405.764
405.68
405.594
405.507
405.418
405.327
405.234
405.14
405.042
404.942
404.84
404.734
404.625
404.513
404.397
404.277
404.152
404.022
403.888
403.748
403.603
403.451
403.293
403.127
402.955
402.775
402.586
402.389
402.182
401.966
401.74
401.504
401.257
400.999
400.729
400.448
400.155
399.85
399.533
399.205
398.865
398.514
398.154
397.784
397.407
397.023
396.636
396.247
395.86
395.477
395.102
394.74
394.395
394.072
393.777
393.515
393.292
393.115
392.989
392.92
416.482
416.463
416.427
416.374
416.303
416.216
416.113
415.996
415.865
415.723
415.57
415.409
415.241
415.066
414.887
414.703
414.517
414.329
414.14
413.951
413.763
413.576
413.392
413.209
413.031
412.855
412.684
412.517
412.354
412.196
412.042
411.893
411.749
411.609
411.473
411.341
411.214
411.09
410.97
410.853
410.739
410.629
410.52
410.415
410.312
410.21
410.111
410.014
409.918
409.824
409.731
409.639
409.549
409.459
409.371
409.283
409.197
409.111
409.026
408.941
408.858
408.775
408.692
408.61
408.529
408.448
408.367
408.287
408.208
408.128
408.049
407.971
407.892
407.814
407.737
407.659
407.582
407.505
407.427
407.35
407.274
407.197
407.12
407.043
406.965
406.888
406.811
406.733
406.655
406.576
406.497
406.418
406.338
406.257
406.176
406.093
406.01
405.926
405.841
405.754
405.666
405.576
405.485
405.392
405.297
405.199
405.1
404.998
404.893
404.785
404.674
404.559
404.441
404.319
404.192
404.061
403.925
403.783
403.636
403.483
403.323
403.156
402.982
402.8
402.61
402.411
402.203
401.985
401.756
401.517
401.266
401.003
400.728
400.44
400.139
399.824
399.495
399.152
398.795
398.423
398.037
397.637
397.225
396.8
396.364
395.919
395.466
395.009
394.549
394.092
393.639
393.197
392.771
392.365
391.986
391.642
391.338
391.082
390.88
390.741
416.536
416.517
416.479
416.424
416.351
416.26
416.154
416.032
415.897
415.751