/*--------------------------------*- C++ -*----------------------------------*\
| =========                 |                                                 |
| \\      /  F ield         | OpenFOAM: The Open Source CFD Toolbox           |
|  \\    /   O peration     | Version:  2306                                  |
|   \\  /    A nd           | Website:  www.openfoam.com                      |
|    \\/     M anipulation  |                                                 |
\*---------------------------------------------------------------------------*/
FoamFile
{
    version     2.0;
    format      ascii;
    arch        "LSB;label=32;scalar=64";
    class       surfaceScalarField;
    location    "0.325";
    object      phi;
}
// * * * * * * * * * * * * * * * * * * * * * * * * * * * * * * * * * * * * * //

dimensions      [0 3 -1 0 0 0 0];

oriented        oriented;

internalField   nonuniform List<scalar> 
34640
(
0.0049244
7.55987e-05
0.00478599
0.000138414
0.00463052
0.000155467
0.00447385
0.000156669
0.00431583
0.000158023
0.00415467
0.000161162
0.00399075
0.00016392
0.00382542
0.00016533
0.00366031
0.000165105
0.00349681
0.000163498
0.00333583
0.000160982
0.00317797
0.000157867
0.00302375
0.000154218
0.00287376
0.000149992
0.00272862
0.000145136
0.00258899
0.000139632
0.00245555
0.000133442
0.0023289
0.00012665
0.0022094
0.000119491
0.00209747
0.000111939
0.00199339
0.000104075
0.00189738
9.60096e-05
0.00180952
8.78652e-05
0.00172975
7.97708e-05
0.00165789
7.18537e-05
0.00159366
6.42331e-05
0.00153664
5.70134e-05
0.00148637
5.02796e-05
0.00144227
4.40939e-05
0.00140378
3.84959e-05
0.00137027
3.35022e-05
0.00134116
2.91101e-05
0.00131586
2.52988e-05
0.00129383
2.20358e-05
0.00127455
1.92785e-05
0.00125757
1.69786e-05
0.00124249
1.50811e-05
0.00122897
1.35224e-05
0.00121672
1.22525e-05
0.00120548
1.12312e-05
0.00119506
1.04215e-05
0.00118527
9.78829e-06
0.00117598
9.29874e-06
0.00116705
8.92385e-06
0.00115841
8.63882e-06
0.00114999
8.42305e-06
0.00114173
8.25974e-06
0.00113359
8.13528e-06
0.00112556
8.03886e-06
0.00111759
7.96195e-06
0.0011097
7.89796e-06
0.00110185
7.84197e-06
0.00109406
7.79036e-06
0.00108632
7.74064e-06
0.00107863
7.69117e-06
0.00107099
7.64099e-06
0.0010634
7.58967e-06
0.00105586
7.53714e-06
0.00104838
7.48364e-06
0.00104095
7.42961e-06
0.00103358
7.3756e-06
0.00102625
7.32226e-06
0.00101898
7.27029e-06
0.00101176
7.22039e-06
0.00100459
7.17327e-06
0.000997459
7.12962e-06
0.000990369
7.09009e-06
0.000983314
7.0553e-06
0.000976288
7.02586e-06
0.000969286
7.00228e-06
0.000962301
6.98509e-06
0.000955326
6.97473e-06
0.000948354
6.97161e-06
0.000941378
6.97615e-06
0.000934389
6.98878e-06
0.00092738
7.00989e-06
0.00092034
7.03989e-06
0.000913261
7.07914e-06
0.000906133
7.12801e-06
0.000898946
7.18686e-06
0.00089169
7.25604e-06
0.000884354
7.33592e-06
0.000876927
7.42686e-06
0.000869398
7.52923e-06
0.000861754
7.6434e-06
0.000853985
7.76974e-06
0.000846076
7.90866e-06
0.000838015
8.06052e-06
0.00082979
8.22574e-06
0.000821385
8.40472e-06
0.000812787
8.59785e-06
0.000803982
8.80553e-06
0.000794953
9.02815e-06
0.000785687
9.26609e-06
0.000776168
9.51972e-06
0.000766378
9.78938e-06
0.000756303
1.00754e-05
0.000745925
1.0378e-05
0.000735227
1.06974e-05
0.000724194
1.10337e-05
0.000712807
1.13871e-05
0.000701049
1.17575e-05
0.000688904
1.21447e-05
0.000676356
1.25484e-05
0.000663388
1.29683e-05
0.000649984
1.34037e-05
0.00063613
1.38541e-05
0.000621812
1.43182e-05
0.000607017
1.47947e-05
0.000591735
1.52821e-05
0.000575956
1.57785e-05
0.000559675
1.62813e-05
0.000542887
1.67881e-05
0.000525591
1.72955e-05
0.000507791
1.77998e-05
0.000489495
1.82968e-05
0.000470713
1.87816e-05
0.000451464
1.92489e-05
0.000431771
1.96929e-05
0.000411664
2.01072e-05
0.000391179
2.04848e-05
0.000370361
2.08184e-05
0.000349261
2.11005e-05
0.000327937
2.13233e-05
0.000306458
2.14791e-05
0.000284897
2.15607e-05
0.000263336
2.15611e-05
0.000241862
2.14746e-05
0.000220565
2.12964e-05
0.000199542
2.10231e-05
0.000178889
2.0653e-05
0.000158703
2.01858e-05
0.000139081
1.96224e-05
0.000120116
1.89648e-05
0.000101901
1.82152e-05
8.45259e-05
1.73751e-05
6.80812e-05
1.64447e-05
5.2657e-05
1.54241e-05
3.83417e-05
1.43154e-05
2.52154e-05
1.31263e-05
1.33417e-05
1.18737e-05
2.7465e-06
1.05952e-05
-6.59316e-06
9.33967e-06
-1.47186e-05
8.12548e-06
-2.17137e-05
6.99503e-06
-2.76593e-05
5.94559e-06
-3.26021e-05
4.94283e-06
-3.6546e-05
3.94384e-06
-3.94746e-05
2.9286e-06
-4.14063e-05
1.93173e-06
-4.24462e-05
1.03988e-06
-4.2773e-05
3.26819e-07
-4.25466e-05
-2.26419e-07
-4.18379e-05
-7.08726e-07
-4.06591e-05
-1.17881e-06
-3.90619e-05
-1.59718e-06
-3.71267e-05
-1.93527e-06
-3.48193e-05
-2.30735e-06
-3.19641e-05
-2.85522e-06
-3.57327e-06
-2.83908e-05
0.00503752
3.80749e-05
0.0050774
9.85348e-05
0.00509715
0.00013572
0.00510102
0.000152795
0.00509795
0.000161096
0.00509063
0.000168478
0.0050778
0.000176757
0.00505833
0.000184798
0.00503218
0.00019126
0.005
0.000195672
0.00496268
0.000198302
0.00492096
0.000199591
0.00487537
0.000199809
0.00482632
0.000199042
0.00477418
0.000197272
0.00471935
0.000194459
0.0046622
0.000190594
0.00460311
0.000185743
0.00454259
0.000180009
0.00448106
0.000173464
0.00441894
0.0001662
0.00435661
0.000158338
0.00429446
0.00015002
0.00423282
0.000141403
0.00417203
0.000132646
0.00411236
0.000123904
0.00405405
0.000115322
0.0039973
0.000107028
0.00394227
9.91267e-05
0.00388906
9.17009e-05
0.00383776
8.48067e-05
0.00378839
7.84785e-05
0.00374096
7.27268e-05
0.00369545
6.75468e-05
0.00365182
6.29161e-05
0.00360998
5.88142e-05
0.00356981
5.52466e-05
0.00353128
5.2052e-05
0.00349431
4.92233e-05
0.00345881
4.67365e-05
0.00342468
4.45537e-05
0.00339183
4.26371e-05
0.00336017
4.09509e-05
0.00332964
3.94622e-05
0.00330013
3.81414e-05
0.00327159
3.69628e-05
0.00324395
3.59043e-05
0.00321714
3.49469e-05
0.0031911
3.40748e-05
0.00316579
3.32744e-05
0.00314115
3.25347e-05
0.00311715
3.18467e-05
0.00309374
3.1203e-05
0.00307088
3.05979e-05
0.00304854
3.00268e-05
0.0030267
2.94862e-05
0.00300531
2.89736e-05
0.00298436
2.84868e-05
0.00296382
2.80245e-05
0.00294367
2.75859e-05
0.00292387
2.71702e-05
0.00290442
2.67772e-05
0.00288528
2.64067e-05
0.00286644
2.60588e-05
0.00284788
2.57337e-05
0.00282958
2.54316e-05
0.00281152
2.51529e-05
0.00279367
2.4898e-05
0.00277603
2.46675e-05
0.00275857
2.44617e-05
0.00274128
2.42811e-05
0.00272413
2.41262e-05
0.0027071
2.39974e-05
0.00269018
2.38954e-05
0.00267335
2.38208e-05
0.00265658
2.37744e-05
0.00263987
2.37567e-05
0.00262318
2.37687e-05
0.00260649
2.3811e-05
0.0025898
2.38844e-05
0.00257306
2.399e-05
0.00255627
2.41286e-05
0.0025394
2.43012e-05
0.00252242
2.45088e-05
0.00250531
2.47525e-05
0.00248804
2.50336e-05
0.0024706
2.53533e-05
0.00245295
2.57127e-05
0.00243506
2.61134e-05
0.00241691
2.65568e-05
0.00239846
2.70443e-05
0.00237969
2.75775e-05
0.00236056
2.81579e-05
0.00234104
2.87874e-05
0.00232109
2.94674e-05
0.00230068
3.01999e-05
0.00227977
3.09866e-05
0.00225832
3.18291e-05
0.00223628
3.27294e-05
0.00221363
3.36891e-05
0.00219031
3.47099e-05
0.00216627
3.57935e-05
0.00214147
3.69412e-05
0.00211587
3.81543e-05
0.0020894
3.94331e-05
0.00206203
4.07798e-05
0.00203369
4.21951e-05
0.00200433
4.3679e-05
0.00197389
4.5231e-05
0.00194232
4.68505e-05
0.00190956
4.85369e-05
0.00187556
5.02881e-05
0.00184024
5.21012e-05
0.00180357
5.39724e-05
0.00176547
5.58969e-05
0.0017259
5.78684e-05
0.0016848
5.98794e-05
0.00164213
6.19208e-05
0.00159784
6.39816e-05
0.0015519
6.60491e-05
0.00150427
6.81083e-05
0.00145495
7.01418e-05
0.00140392
7.21299e-05
0.00135119
7.40503e-05
0.00129679
7.58778e-05
0.00124077
7.75844e-05
0.00118319
7.91391e-05
0.00112416
8.05084e-05
0.0010638
8.16559e-05
0.00100228
8.25426e-05
0.000939804
8.31281e-05
0.000876619
8.33707e-05
0.000813013
8.3229e-05
0.000749314
8.26634e-05
0.000685891
8.16385e-05
0.000623141
8.01251e-05
0.000561482
7.81037e-05
0.000501337
7.55687e-05
0.00044312
7.25331e-05
0.000387213
6.90327e-05
0.000333962
6.51254e-05
0.000283659
6.08978e-05
0.00023655
5.64484e-05
0.000192812
5.18641e-05
0.00015258
4.72267e-05
0.000115937
4.25886e-05
8.28742e-05
3.80056e-05
5.34201e-05
3.33979e-05
2.76203e-05
2.87283e-05
5.32612e-06
2.42259e-05
-1.36981e-05
2.00641e-05
-2.9845e-05
1.64737e-05
-4.33326e-05
1.32612e-05
-5.42867e-05
1.02453e-05
-6.28594e-05
7.39385e-06
-6.9285e-05
4.82845e-06
-7.38335e-05
2.61321e-06
-7.66215e-05
4.80741e-07
-7.75838e-05
-1.89289e-06
-4.45554e-06
-7.67016e-05
0.00501445
2.36272e-05
0.00504447
6.85094e-05
0.00507418
0.000106011
0.00509859
0.000128388
0.00511781
0.000141877
0.00513503
0.000151254
0.00515196
0.000159827
0.00516818
0.000168575
0.00518272
0.000176724
0.00519492
0.000183472
0.00520465
0.000188572
0.00521208
0.000192158
0.0052174
0.000194495
0.00522066
0.000195783
0.00522183
0.000196102
0.00522084
0.000195444
0.00521764
0.000193794
0.00521223
0.000191159
0.00520467
0.000187566
0.00519503
0.000183107
0.00518337
0.000177854
0.00516981
0.000171904
0.00515445
0.000165376
0.00513745
0.000158404
0.00511897
0.000151128
0.00509918
0.000143693
0.00507827
0.000136234
0.00505642
0.000128878
0.00503381
0.000121737
0.00501061
0.000114901
0.00498697
0.000108442
0.00496304
0.000102411
0.00493893
9.68354e-05
0.00491475
9.1731e-05
0.00489057
8.70967e-05
0.00486646
8.2922e-05
0.00484253
7.91799e-05
0.00481876
7.58156e-05
0.00479519
7.27951e-05
0.00477183
7.00936e-05
0.0047487
6.76837e-05
0.00472581
6.5535e-05
0.00470314
6.36164e-05
0.0046807
6.18981e-05
0.00465849
6.03526e-05
0.0046365
5.89557e-05
0.00461472
5.76857e-05
0.00459314
5.65242e-05
0.00457176
5.54553e-05
0.00455057
5.44655e-05
0.00452956
5.35435e-05
0.00450873
5.26798e-05
0.00448806
5.1867e-05
0.00446756
5.10987e-05
0.00444722
5.03702e-05
0.00442703
4.96778e-05
0.00440698
4.90187e-05
0.00438708
4.83908e-05
0.00436731
4.77927e-05
0.00434767
4.72235e-05
0.00432816
4.66827e-05
0.00430877
4.61703e-05
0.00428949
4.56864e-05
0.00427031
4.52313e-05
0.00425124
4.48056e-05
0.00423226
4.44099e-05
0.00421337
4.40452e-05
0.00419456
4.37123e-05
0.00417581
4.34121e-05
0.00415713
4.3146e-05
0.00413849
4.2915e-05
0.0041199
4.27197e-05
0.00410134
4.25615e-05
0.00408279
4.24416e-05
0.00406425
4.23615e-05
0.0040457
4.23226e-05
0.00402713
4.23264e-05
0.00400853
4.23745e-05
0.00398987
4.24684e-05
0.00397114
4.26099e-05
0.00395233
4.28009e-05
0.00393342
4.30431e-05
0.00391438
4.33388e-05
0.0038952
4.36899e-05
0.00387585
4.40987e-05
0.00385632
4.45676e-05
0.00383657
4.5099e-05
0.00381659
4.56956e-05
0.00379634
4.63601e-05
0.00377581
4.70954e-05
0.00375495
4.79046e-05
0.00373373
4.87908e-05
0.00371213
4.97573e-05
0.00369011
5.08077e-05
0.00366763
5.19456e-05
0.00364466
5.31747e-05
0.00362115
5.44989e-05
0.00359705
5.59222e-05
0.00357233
5.74488e-05
0.00354694
5.90829e-05
0.00352082
6.08288e-05
0.00349392
6.26908e-05
0.00346619
6.46731e-05
0.00343757
6.678e-05
0.00340798
6.90156e-05
0.00337738
7.13847e-05
0.00334568
7.38913e-05
0.00331282
7.65392e-05
0.00327872
7.93313e-05
0.0032433
8.22702e-05
0.00320648
8.53598e-05
0.00316817
8.86017e-05
0.00312827
9.19967e-05
0.0030867
9.55448e-05
0.00304335
9.92447e-05
0.00299813
0.000103094
0.00295092
0.000107088
0.00290162
0.00011122
0.00285012
0.000115483
0.0027963
0.000119865
0.00274006
0.000124352
0.00268127
0.000128927
0.00261983
0.000133568
0.00255563
0.00013825
0.00248857
0.000142944
0.00241854
0.000147614
0.00234546
0.000152218
0.00226926
0.000156709
0.00218988
0.000161032
0.0021073
0.000165127
0.00202151
0.000168922
0.00193254
0.00017234
0.00184047
0.000175297
0.00174543
0.000177703
0.0016476
0.000179464
0.00154725
0.000180478
0.00144471
0.000180641
0.00134043
0.00017985
0.00123496
0.000178007
0.00112896
0.000175026
0.00102325
0.00017084
0.000918738
0.000165408
0.000816463
0.000158723
0.000717509
0.000150818
0.000622953
0.000141783
0.000533777
0.000131764
0.000450814
0.000120969
0.000374545
0.000109666
0.000305069
9.82046e-05
0.000242339
8.69558e-05
0.000186189
7.62139e-05
0.000136511
6.61519e-05
9.2945e-05
5.6827e-05
5.54383e-05
4.7752e-05
2.35445e-05
3.92877e-05
-3.25952e-06
3.16324e-05
-2.56604e-05
2.50141e-05
-4.39884e-05
1.88088e-05
-5.84587e-05
1.25774e-05
6.41609e-06
-6.93303e-05
0.00500634
1.72885e-05
0.00502385
5.09992e-05
0.00504705
8.28145e-05
0.00506939
0.000106043
0.00508908
0.000122187
0.00510686
0.000133478
0.00512443
0.000142249
0.00514265
0.000150363
0.00516108
0.000158285
0.00517925
0.000165303
0.00519682
0.000171002
0.00521368
0.000175302
0.00522985
0.000178325
0.00524536
0.00018027
0.00526017
0.000181293
0.00527418
0.000181439
0.00528726
0.000180714
0.00529929
0.000179121
0.00531018
0.000176681
0.00531984
0.000173451
0.00532819
0.000169499
0.00533519
0.000164905
0.0053408
0.000159764
0.00534502
0.000154185
0.00534787
0.000148282
0.00534939
0.000142174
0.00534964
0.000135976
0.00534873
0.000129797
0.00534673
0.000123736
0.00534375
0.000117877
0.0053399
0.000112288
0.00533529
0.000107021
0.00533002
0.000102111
0.00532417
9.75781e-05
0.00531784
9.34296e-05
0.0053111
8.96582e-05
0.00530404
8.62469e-05
0.00529668
8.31745e-05
0.00528906
8.04134e-05
0.00528121
7.79382e-05
0.00527317
7.57253e-05
0.00526496
7.37504e-05
0.00525658
7.19885e-05
0.00524807
7.04147e-05
0.00523942
6.90053e-05
0.00523063
6.77385e-05
0.00522172
6.65948e-05
0.00521269
6.55572e-05
0.00520353
6.46108e-05
0.00519426
6.37427e-05
0.00518486
6.29423e-05
0.00517534
6.22003e-05
0.0051657
6.15092e-05
0.00515593
6.0863e-05
0.00514605
6.02566e-05
0.00513604
5.96862e-05
0.00512591
5.9149e-05
0.00511565
5.86428e-05
0.00510528
5.81662e-05
0.00509479
5.77183e-05
0.00508417
5.72987e-05
0.00507343
5.69072e-05
0.00506258
5.65444e-05
0.0050516
5.62106e-05
0.00504049
5.59067e-05
0.00502927
5.56338e-05
0.00501792
5.53929e-05
0.00500645
5.51854e-05
0.00499485
5.50128e-05
0.00498312
5.48765e-05
0.00497126
5.47784e-05
0.00495926
5.47196e-05
0.00494712
5.4702e-05
0.00493483
5.47275e-05
0.00492239
5.47982e-05
0.0049098
5.49163e-05
0.00489704
5.50839e-05
0.00488411
5.53035e-05
0.004871
5.55773e-05
0.00485771
5.59082e-05
0.00484421
5.62986e-05
0.0048305
5.67516e-05
0.00481657
5.72701e-05
0.0048024
5.78574e-05
0.00478798
5.85166e-05
0.0047733
5.92514e-05
0.00475833
6.00655e-05
0.00474306
6.09627e-05
0.00472748
6.19473e-05
0.00471155
6.30235e-05
0.00469526
6.4196e-05
0.00467858
6.54695e-05
0.00466149
6.68491e-05
0.00464396
6.834e-05
0.00462595
6.99479e-05
0.00460745
7.16785e-05
0.00458841
7.35379e-05
0.0045688
7.55324e-05
0.00454858
7.76686e-05
0.00452771
7.99534e-05
0.00450614
8.23938e-05
0.00448384
8.49971e-05
0.00446074
8.77706e-05
0.0044368
9.07221e-05
0.00441196
9.38594e-05
0.00438615
9.71906e-05
0.00435932
0.000100724
0.00433139
0.000104467
0.00430229
0.000108428
0.00427195
0.000112614
0.00424028
0.000117034
0.00420718
0.000121694
0.00417258
0.000126601
0.00413636
0.000131762
0.00409842
0.000137181
0.00405866
0.000142861
0.00401694
0.000148806
0.00397314
0.000155016
0.00392714
0.00016149
0.00387878
0.000168223
0.00382792
0.000175211
0.0037744
0.000182442
0.00371807
0.000189904
0.00365874
0.000197577
0.00359625
0.000205439
0.0035304
0.00021346
0.00346101
0.000221603
0.0033879
0.000229827
0.00331085
0.000238077
0.00322969
0.000246292
0.00314421
0.0002544
0.00305423
0.000262317
0.00295959
0.000269936
0.00286014
0.000277159
0.00275573
0.000283872
0.00264627
0.000289934
0.00253172
0.000295199
0.00241206
0.000299507
0.00228738
0.000302689
0.00215784
0.000304565
0.00202373
0.000304952
0.00188547
0.000303667
0.00174365
0.00030054
0.00159906
0.000295405
0.00145274
0.000288107
0.00130599
0.000278514
0.00116041
0.000266553
0.00101784
0.00025223
0.000880381
0.000235667
0.000750192
0.000217144
0.000629307
0.000197099
0.000519335
0.000176124
0.000421276
0.000154886
0.000334867
0.000134161
0.000259423
0.000114731
0.000193922
9.71337e-05
0.000137337
8.15992e-05
8.91181e-05
6.70277e-05
4.84148e-05
5.32807e-05
4.03461e-05
1.44848e-05
0.00500365
1.36379e-05
0.00501435
4.03031e-05
0.00503119
6.5976e-05
0.00504934
8.78852e-05
0.00506702
0.00010451
0.00508362
0.000116874
0.00509961
0.000126267
0.00511581
0.000134164
0.00513256
0.000141531
0.00514965
0.000148213
0.00516675
0.000153905
0.00518365
0.000158394
0.0052003
0.000161681
0.00521666
0.000163902
0.00523276
0.000165199
0.00524854
0.000165658
0.00526393
0.000165325
0.00527883
0.000164221
0.00529314
0.000162373
0.00530676
0.000159823
0.00531963
0.000156632
0.00533167
0.00015287
0.00534281
0.000148618
0.00535303
0.000143968
0.0053623
0.000139015
0.00537061
0.000133858
0.005378
0.000128592
0.00538448
0.000123312
0.00539012
0.0001181
0.00539496
0.00011303
0.00539909
0.000108164
0.00540256
0.000103549
0.00540545
9.9221e-05
0.00540783
9.52004e-05
0.00540976
9.14974e-05
0.00541131
8.81109e-05
0.00541252
8.50338e-05
0.00541344
8.22545e-05
0.0054141
7.97544e-05
0.00541452
7.75123e-05
0.00541474
7.55072e-05
0.00541477
7.37189e-05
0.00541464
7.21269e-05
0.00541434
7.07109e-05
0.00541389
6.9451e-05
0.0054133
6.83283e-05
0.00541257
6.73256e-05
0.0054117
6.64274e-05
0.00541069
6.56202e-05
0.00540954
6.48922e-05
0.00540825
6.42332e-05
0.00540682
6.36345e-05
0.00540524
6.30889e-05
0.00540351
6.25904e-05
0.00540163
6.21339e-05
0.0053996
6.17157e-05
0.00539742
6.13327e-05
0.00539508
6.09826e-05
0.00539258
6.06639e-05
0.00538993
6.03756e-05
0.00538711
6.01171e-05
0.00538413
5.98883e-05
0.00538098
5.96894e-05
0.00537767
5.95212e-05
0.00537419
5.93843e-05
0.00537055
5.92798e-05
0.00536673
5.92091e-05
0.00536274
5.91734e-05
0.00535858
5.91746e-05
0.00535424
5.92143e-05
0.00534973
5.92943e-05
0.00534503
5.94165e-05
0.00534015
5.9583e-05
0.00533508
5.97961e-05
0.00532982
6.00582e-05
0.00532437
6.03718e-05
0.00531871
6.07397e-05
0.00531285
6.11648e-05
0.00530678
6.16499e-05
0.00530049
6.21983e-05
0.00529397
6.28133e-05
0.00528722
6.34985e-05
0.00528024
6.42575e-05
0.005273
6.50943e-05
0.0052655
6.6013e-05
0.00525774
6.7018e-05
0.00524969
6.8114e-05
0.00524135
6.93057e-05
0.00523269
7.05985e-05
0.00522372
7.19977e-05
0.00521441
7.35091e-05
0.00520474
7.51388e-05
0.00519469
7.68931e-05
0.00518426
7.87788e-05
0.0051734
8.08029e-05
0.00516211
8.2973e-05
0.00515035
8.52969e-05
0.0051381
8.77826e-05
0.00512533
9.0439e-05
0.005112
9.32748e-05
0.0050981
9.62996e-05
0.00508357
9.95231e-05
0.00506839
0.000102955
0.0050525
0.000106607
0.00503587
0.000110489
0.00501845
0.000114613
0.00500018
0.000118991
0.00498102
0.000123633
0.00496089
0.000128553
0.00493974
0.000133762
0.0049175
0.000139273
0.0048941
0.000145099
0.00486945
0.000151252
0.00484347
0.000157744
0.00481606
0.000164585
0.00478714
0.000171788
0.00475658
0.000179362
0.00472428
0.000187315
0.00469011
0.000195657
0.00465395
0.000204391
0.00461563
0.000213522
0.00457503
0.00022305
0.00453196
0.000232973
0.00448625
0.000243284
0.00443772
0.000253973
0.00438615
0.000265023
0.00433134
0.000276413
0.00427306
0.000288111
0.00421105
0.000300081
0.00414507
0.000312274
0.00407484
0.000324632
0.00400007
0.000337084
0.00392047
0.000349544
0.00383571
0.000361918
0.00374548
0.000374097
0.00364947
0.000385949
0.00354734
0.000397328
0.00343878
0.000408066
0.00332349
0.000417978
0.00320119
0.00042686
0.00307166
0.000434483
0.00293475
0.000440578
0.00279038
0.000444907
0.00263858
0.000447207
0.00247952
0.000447165
0.00231356
0.000444474
0.00214128
0.000438836
0.00196353
0.000429981
0.0017815
0.000417692
0.00159684
0.000401804
0.00141173
0.000382208
0.00122897
0.000358888
0.00105187
0.000331987
0.000884117
0.000301913
0.000729399
0.00026945
0.000590757
0.000235776
0.000470127
0.000202229
0.000366972
0.000170183
0.000279412
0.000140841
0.000114872
0.000204885
0.00500249
1.11484e-05
0.00500982
3.29722e-05
0.00502171
5.40912e-05
0.00503621
7.33812e-05
0.00505142
8.9303e-05
0.00506648
0.000101814
0.00508114
0.000111609
0.00509573
0.000119566
0.00511075
0.000126516
0.00512619
0.000132768
0.00514189
0.000138211
0.00515762
0.000142662
0.00517324
0.00014606
0.00518869
0.00014845
0.00520396
0.000149932
0.00521902
0.0001506
0.00523382
0.000150523
0.0052483
0.000149744
0.00526237
0.000148299
0.00527597
0.000146228
0.00528902
0.000143583
0.00530146
0.000140426
0.00531325
0.00013683
0.00532435
0.00013287
0.00533473
0.000128631
0.0053444
0.000124194
0.00535335
0.000119643
0.0053616
0.000115055
0.0053692
0.000110505
0.00537617
0.000106055
0.00538258
0.00010176
0.00538846
9.7664e-05
0.00539388
9.3799e-05
0.0053989
9.0187e-05
0.00540355
8.68404e-05
0.0054079
8.37632e-05
0.00541198
8.09535e-05
0.00541583
7.84044e-05
0.00541948
7.61036e-05
0.00542296
7.40351e-05
0.00542628
7.21814e-05
0.00542948
7.05254e-05
0.00543255
6.90504e-05
0.00543553
6.77394e-05
0.0054384
6.6576e-05
0.00544119
6.55442e-05
0.00544388
6.46289e-05
0.00544649
6.38165e-05
0.00544902
6.30947e-05
0.00545146
6.24529e-05
0.00545381
6.18816e-05
0.00545607
6.13727e-05
0.00545824
6.09195e-05
0.00546031
6.05161e-05
0.00546229
6.01578e-05
0.00546417
5.98407e-05
0.00546594
5.95617e-05
0.0054676
5.93187e-05
0.00546916
5.91099e-05
0.0054706
5.89342e-05
0.00547192
5.8791e-05
0.00547313
5.86801e-05
0.00547422
5.86017e-05
0.00547518
5.85564e-05
0.00547602
5.85448e-05
0.00547673
5.85681e-05
0.00547732
5.86274e-05
0.00547776
5.87244e-05
0.00547808
5.88606e-05
0.00547826
5.90379e-05
0.00547829
5.92581e-05
0.00547818
5.95234e-05
0.00547793
5.98361e-05
0.00547753
6.01985e-05
0.00547697
6.06134e-05
0.00547626
6.10836e-05
0.00547539
6.16119e-05
0.00547435
6.22015e-05
0.00547315
6.28557e-05
0.00547177
6.35782e-05
0.00547021
6.43724e-05
0.00546846
6.52425e-05
0.00546653
6.61926e-05
0.0054644
6.7227e-05
0.00546206
6.83504e-05
0.00545951
6.95678e-05
0.00545674
7.08844e-05
0.00545374
7.23056e-05
0.0054505
7.38374e-05
0.00544701
7.54859e-05
0.00544326
7.72577e-05
0.00543924
7.91596e-05
0.00543494
8.1199e-05
0.00543033
8.33836e-05
0.00542541
8.57214e-05
0.00542017
8.82211e-05
0.00541457
9.08917e-05
0.00540861
9.37427e-05
0.00540227
9.67841e-05
0.00539551
0.000100026
0.00538833
0.000103481
0.0053807
0.000107159
0.00537258
0.000111072
0.00536395
0.000115234
0.00535479
0.000119657
0.00534504
0.000124356
0.00533469
0.000129344
0.00532369
0.000134636
0.00531199
0.000140249
0.00529956
0.000146197
0.00528633
0.000152496
0.00527227
0.000159164
0.0052573
0.000166217
0.00524138
0.000173672
0.00522442
0.000181546
0.00520635
0.000189855
0.00518709
0.000198618
0.00516656
0.000207848
0.00514465
0.000217563
0.00512127
0.000227776
0.00509629
0.0002385
0.00506959
0.000249746
0.00504104
0.000261523
0.00501049
0.000273838
0.00497777
0.000286693
0.00494271
0.000300087
0.0049051
0.000314014
0.00486476
0.00032846
0.00482143
0.000343408
0.00477487
0.000358829
0.00472482
0.000374688
0.00467097
0.000390937
0.00461299
0.000407518
0.00455055
0.00042436
0.00448327
0.000441377
0.00441075
0.000458466
0.00433258
0.000475507
0.00424828
0.000492357
0.00415741
0.00050885
0.00405947
0.000524799
0.00395397
0.000539984
0.00384039
0.00055416
0.00371823
0.000567064
0.00358704
0.000578402
0.00344637
0.000587838
0.00329583
0.000595006
0.00313516
0.000599513
0.00296423
0.000600912
0.00278311
0.000598808
0.00259211
0.000592803
0.0023919
0.000582423
0.00218353
0.000567252
0.00196856
0.000546959
0.00174913
0.000521346
0.00152825
0.00049033
0.00131003
0.000453995
0.00109958
0.000412677
0.000902616
0.000367145
0.000724593
0.000318864
0.000270035
0.00056943
0.00500185
9.29993e-06
0.00500728
2.75391e-05
0.00501604
4.53328e-05
0.00502755
6.18692e-05
0.00504038
7.64712e-05
0.00505372
8.84767e-05
0.00506711
9.8216e-05
0.00508051
0.000106167
0.00509416
0.000112874
0.00510819
0.000118736
0.00512255
0.000123849
0.00513708
0.000128132
0.00515162
0.000131516
0.00516608
0.000133992
0.0051804
0.000135612
0.00519455
0.000136452
0.00520849
0.000136587
0.00522216
0.000136073
0.0052355
0.000134955
0.00524845
0.000133276
0.00526095
0.000131082
0.00527295
0.000128427
0.00528441
0.000125374
0.00529529
0.000121989
0.00530558
0.000118344
0.00531526
0.00011451
0.00532435
0.000110558
0.00533285
0.000106555
0.00534079
0.000102565
0.0053482
9.86427e-05
0.00535512
9.48369e-05
0.0053616
9.11868e-05
0.00536768
8.77228e-05
0.0053734
8.44668e-05
0.0053788
8.14328e-05
0.00538394
7.86277e-05
0.00538884
7.60531e-05
0.00539354
7.37053e-05
0.00539807
7.15762e-05
0.00540245
6.96543e-05
0.0054067
6.79259e-05
0.00541085
6.63771e-05
0.00541491
6.4994e-05
0.00541888
6.37627e-05
0.00542279
6.26694e-05
0.00542663
6.17007e-05
0.00543042
6.08436e-05
0.00543415
6.00863e-05
0.00543783
5.94179e-05
0.00544145
5.88287e-05
0.00544502
5.83103e-05
0.00544854
5.78552e-05
0.005452
5.7457e-05
0.00545541
5.71105e-05
0.00545875
5.6811e-05
0.00546204
5.6555e-05
0.00546526
5.63395e-05
0.00546842
5.61622e-05
0.00547151
5.60215e-05
0.00547452
5.59163e-05
0.00547747
5.58459e-05
0.00548034
5.58101e-05
0.00548313
5.5809e-05
0.00548585
5.58432e-05
0.00548848
5.59134e-05
0.00549102
5.60205e-05
0.00549349
5.6166e-05
0.00549586
5.63512e-05
0.00549814
5.65778e-05
0.00550033
5.68477e-05
0.00550243
5.71629e-05
0.00550442
5.75256e-05
0.00550632
5.79382e-05
0.00550812
5.84031e-05
0.00550981
5.89233e-05
0.00551139
5.95015e-05
0.00551286
6.0141e-05
0.00551422
6.08449e-05
0.00551546
6.16169e-05
0.00551657
6.24606e-05
0.00551757
6.33801e-05
0.00551843
6.43794e-05
0.00551916
6.54629e-05
0.00551975
6.66355e-05
0.0055202
6.79021e-05
0.0055205
6.92678e-05
0.00552065
7.07384e-05
0.00552063
7.23196e-05
0.00552045
7.40179e-05
0.0055201
7.58397e-05
0.00551956
7.7792e-05
0.00551884
7.98824e-05
0.00551792
8.21186e-05
0.0055168
8.4509e-05
0.00551545
8.70622e-05
0.00551389
8.97875e-05
0.00551208
9.26948e-05
0.00551003
9.57943e-05
0.00550772
9.90968e-05
0.00550513
0.000102614
0.00550226
0.000106358
0.00549907
0.00011034
0.00549557
0.000114576
0.00549173
0.000119078
0.00548752
0.000123861
0.00548294
0.000128941
0.00547795
0.000134333
0.00547253
0.000140054
0.00546666
0.000146122
0.0054603
0.000152554
0.00545343
0.00015937
0.005446
0.000166589
0.00543799
0.00017423
0.00542934
0.000182315
0.00542003
0.000190863
0.00540999
0.000199896
0.00539917
0.000209435
0.00538752
0.000219502
0.00537496
0.000230118
0.00536143
0.000241304
0.00534685
0.00025308
0.00533113
0.000265466
0.00531418
0.00027848
0.00529588
0.000292138
0.00527611
0.000306456
0.00525476
0.000321445
0.00523166
0.000337112
0.00520666
0.000353462
0.00517957
0.000370495
0.0051502
0.000388203
0.00511831
0.000406572
0.00508367
0.000425581
0.00504598
0.000445199
0.00500496
0.000465385
0.00496025
0.000486083
0.00491149
0.000507226
0.00485827
0.00052873
0.00480013
0.000550492
0.0047366
0.000572386
0.00466713
0.000594266
0.00459116
0.000615958
0.00450806
0.000637262
0.00441717
0.000657946
0.00431783
0.000677746
0.00420931
0.000696356
0.00409089
0.000713427
0.00396184
0.000728564
0.00382143
0.000741326
0.00366899
0.000751248
0.00350397
0.000757824
0.0033259
0.000760489
0.00313452
0.000758638
0.00292986
0.00075161
0.00271231
0.000738898
0.00248276
0.00071988
0.00224279
0.000693967
0.0019947
0.000660769
0.0017417
0.000620143
0.00148838
0.000572184
0.000517339
0.00124108
0.00500144
7.86105e-06
0.00500568
2.33027e-05
0.00501255
3.84552e-05
0.00502174
5.26816e-05
0.00503256
6.5647e-05
0.00504425
7.67954e-05
0.00505635
8.61123e-05
0.00506867
9.38463e-05
0.00508122
0.000100326
0.00509409
0.000105865
0.00510729
0.000110647
0.00512073
0.000114694
0.00513428
0.000117969
0.00514782
0.000120447
0.00516129
0.000122147
0.00517462
0.00012312
0.00518777
0.000123433
0.0052007
0.000123143
0.00521335
0.000122302
0.00522568
0.000120955
0.00523761
0.000119146
0.00524912
0.000116922
0.00526015
0.000114337
0.00527069
0.00011145
0.00528071
0.000108321
0.00529021
0.000105013
0.00529918
0.000101585
0.00530764
9.80978e-05
0.0053156
9.46042e-05
0.00532309
9.11534e-05
0.00533014
8.77879e-05
0.00533678
8.45433e-05
0.00534306
8.14479e-05
0.005349
7.8523e-05
0.00535465
7.57831e-05
0.00536004
7.3237e-05
0.00536521
7.08882e-05
0.00537018
6.87356e-05
0.00537498
6.67744e-05
0.00537964
6.49962e-05
0.00538417
6.33912e-05
0.0053886
6.19483e-05
0.00539294
6.0656e-05
0.0053972
5.9503e-05
0.00540139
5.84777e-05
0.00540552
5.75688e-05
0.0054096
5.67654e-05
0.00541363
5.60573e-05
0.00541761
5.54348e-05
0.00542155
5.48896e-05
0.00542545
5.44138e-05
0.0054293
5.40009e-05
0.00543311
5.3645e-05
0.00543688
5.33413e-05
0.00544061
5.30855e-05
0.00544429
5.28742e-05
0.00544792
5.27047e-05
0.00545151
5.25748e-05
0.00545505
5.24831e-05
0.00545854
5.24283e-05
0.00546197
5.24099e-05
0.00546536
5.24277e-05
0.00546868
5.24818e-05
0.00547195
5.25727e-05
0.00547517
5.27011e-05
0.00547832
5.28682e-05
0.00548141
5.3075e-05
0.00548444
5.33232e-05
0.0054874
5.36144e-05
0.0054903
5.39505e-05
0.00549313
5.43336e-05
0.00549589
5.47659e-05
0.00549857
5.525e-05
0.00550119
5.57883e-05
0.00550373
5.63837e-05
0.00550619
5.70393e-05
0.00550857
5.77583e-05
0.00551088
5.8544e-05
0.00551309
5.94002e-05
0.00551522
6.03306e-05
0.00551726
6.13393e-05
0.00551921
6.24307e-05
0.00552106
6.36094e-05
0.00552282
6.48803e-05
0.00552447
6.62484e-05
0.00552602
6.77193e-05
0.00552746
6.92988e-05
0.00552879
7.09929e-05
0.00553
7.28083e-05
0.00553109
7.47516e-05
0.00553205
7.68304e-05
0.00553288
7.90521e-05
0.00553357
8.1425e-05
0.00553412
8.39577e-05
0.00553453
8.66594e-05
0.00553477
8.95395e-05
0.00553486
9.26084e-05
0.00553478
9.58767e-05
0.00553452
9.93558e-05
0.00553408
0.000103058
0.00553344
0.000106995
0.0055326
0.00011118
0.00553155
0.000115629
0.00553027
0.000120354
0.00552876
0.000125372
0.005527
0.000130699
0.00552498
0.000136352
0.00552269
0.000142348
0.0055201
0.000148706
0.00551721
0.000155445
0.00551399
0.000162587
0.00551043
0.00017015
0.00550651
0.000178157
0.00550219
0.000186631
0.00549746
0.000195595
0.00549228
0.000205072
0.00548663
0.000215086
0.00548047
0.000225663
0.00547376
0.000236827
0.00546646
0.000248603
0.00545852
0.000261018
0.00544989
0.000274096
0.00544051
0.000287862
0.00543031
0.000302339
0.00541922
0.000317551
0.00540714
0.000333519
0.00539399
0.000350261
0.00537966
0.000367796
0.00536402
0.000386136
0.00534693
0.000405291
0.00532823
0.000425267
0.00530775
0.000446062
0.00528528
0.00046767
0.00526059
0.000490075
0.00523342
0.000513254
0.00520348
0.000537171
0.00517043
0.000561779
0.0051339
0.000587017
0.00509349
0.000612805
0.00504871
0.000639044
0.00499905
0.000665617
0.00494393
0.000692377
0.00488273
0.000719152
0.00481474
0.000745734
0.00473921
0.000771881
0.00465533
0.000797305