/*--------------------------------*- C++ -*----------------------------------*\
| =========                 |                                                 |
| \\      /  F ield         | OpenFOAM: The Open Source CFD Toolbox           |
|  \\    /   O peration     | Version:  2306                                  |
|   \\  /    A nd           | Website:  www.openfoam.com                      |
|    \\/     M anipulation  |                                                 |
\*---------------------------------------------------------------------------*/
FoamFile
{
    version     2.0;
    format      ascii;
    arch        "LSB;label=32;scalar=64";
    class       volVectorField;
    location    "0.325";
    object      U;
}
// * * * * * * * * * * * * * * * * * * * * * * * * * * * * * * * * * * * * * //

dimensions      [0 1 -1 0 0 0 0];

internalField   nonuniform List<vector> 
17600
(
(9.80708 0.0850068 0)
(9.62283 0.1805 0)
(9.41196 0.217949 0)
(9.14628 0.225578 0)
(8.83439 0.2251 0)
(8.49836 0.225385 0)
(8.15616 0.226736 0)
(7.81672 0.227129 0)
(7.48269 0.225219 0)
(7.15415 0.220818 0)
(6.83067 0.214448 0)
(6.51243 0.206753 0)
(6.20026 0.19816 0)
(5.89551 0.188852 0)
(5.59966 0.178847 0)
(5.31425 0.168129 0)
(5.0406 0.156697 0)
(4.78013 0.144613 0)
(4.53373 0.131894 0)
(4.3022 0.118628 0)
(4.0862 0.104998 0)
(3.88622 0.0912594 0)
(3.70252 0.077705 0)
(3.53514 0.0646289 0)
(3.38384 0.0523004 0)
(3.24812 0.0409456 0)
(3.12727 0.0307339 0)
(3.02036 0.0217713 0)
(2.92635 0.0141004 0)
(2.84409 0.00770666 0)
(2.77239 0.00252957 0)
(2.71004 -0.00152501 0)
(2.65585 -0.004571 0)
(2.60871 -0.00673296 0)
(2.56755 -0.00813342 0)
(2.53143 -0.00889425 0)
(2.49948 -0.00912504 0)
(2.47097 -0.00895665 0)
(2.44527 -0.00851026 0)
(2.42185 -0.00787978 0)
(2.40025 -0.00713429 0)
(2.38009 -0.006325 0)
(2.36104 -0.00549031 0)
(2.34285 -0.00465875 0)
(2.32531 -0.00385099 0)
(2.30827 -0.00308143 0)
(2.2916 -0.00235971 0)
(2.27522 -0.00169181 0)
(2.25906 -0.00108089 0)
(2.24307 -0.0005279 0)
(2.22721 -3.20406e-05 0)
(2.21148 0.000408849 0)
(2.19585 0.000797922 0)
(2.18032 0.00113899 0)
(2.1649 0.00143627 0)
(2.14957 0.0016941 0)
(2.13434 0.00191686 0)
(2.11921 0.00210876 0)
(2.1042 0.00227381 0)
(2.08928 0.00241576 0)
(2.07448 0.00253804 0)
(2.05979 0.00264381 0)
(2.04519 0.00273589 0)
(2.03071 0.00281682 0)
(2.01632 0.00288886 0)
(2.00202 0.00295399 0)
(1.9878 0.00301397 0)
(1.97366 0.00307034 0)
(1.95958 0.00312441 0)
(1.94555 0.00317735 0)
(1.93157 0.00323009 0)
(1.91761 0.00328342 0)
(1.90367 0.00333804 0)
(1.88972 0.00339462 0)
(1.87576 0.00345383 0)
(1.86177 0.00351627 0)
(1.84772 0.00358248 0)
(1.83361 0.00365294 0)
(1.8194 0.00372804 0)
(1.80509 0.00380817 0)
(1.79066 0.00389364 0)
(1.77607 0.00398476 0)
(1.76131 0.00408179 0)
(1.74636 0.00418499 0)
(1.73119 0.00429456 0)
(1.71578 0.00441071 0)
(1.70011 0.0045336 0)
(1.68415 0.00466338 0)
(1.66787 0.00480016 0)
(1.65124 0.00494404 0)
(1.63425 0.00509505 0)
(1.61685 0.00525322 0)
(1.59902 0.0054185 0)
(1.58073 0.00559078 0)
(1.56196 0.00576991 0)
(1.54265 0.00595563 0)
(1.5228 0.00614761 0)
(1.50235 0.00634541 0)
(1.48128 0.00654846 0)
(1.45956 0.00675605 0)
(1.43715 0.00696731 0)
(1.41401 0.00718113 0)
(1.39012 0.00739617 0)
(1.36544 0.00761085 0)
(1.33993 0.00782337 0)
(1.31356 0.00803229 0)
(1.28632 0.00823614 0)
(1.25815 0.00843304 0)
(1.22905 0.00862076 0)
(1.19898 0.00879683 0)
(1.16792 0.00895873 0)
(1.13587 0.00910314 0)
(1.10281 0.00922654 0)
(1.06873 0.00932479 0)
(1.03364 0.00939338 0)
(0.997543 0.00942754 0)
(0.960465 0.00942233 0)
(0.922432 0.00937279 0)
(0.883486 0.00927407 0)
(0.84368 0.00912164 0)
(0.803078 0.00891154 0)
(0.761762 0.00864071 0)
(0.719828 0.00830738 0)
(0.677385 0.00791149 0)
(0.63456 0.00745517 0)
(0.591494 0.0069433 0)
(0.548343 0.0063839 0)
(0.505274 0.00578857 0)
(0.462467 0.00517263 0)
(0.420108 0.00455482 0)
(0.37839 0.00395647 0)
(0.337506 0.00339967 0)
(0.29765 0.00290442 0)
(0.259012 0.002485 0)
(0.221779 0.00214602 0)
(0.186133 0.00187867 0)
(0.152257 0.00165834 0)
(0.120332 0.00144526 0)
(0.0905412 0.00118965 0)
(0.0630539 0.000842949 0)
(0.0380109 0.000374312 0)
(0.0154944 -0.000208066 0)
(-0.00443055 -0.000861099 0)
(-0.0218587 -0.0015499 0)
(-0.0369761 -0.00216184 0)
(-0.0499144 -0.00262661 0)
(-0.0608056 -0.00292741 0)
(-0.0696992 -0.00314051 0)
(-0.0765565 -0.00336019 0)
(-0.081376 -0.00358071 0)
(-0.0842871 -0.00372699 0)
(-0.0856026 -0.00371399 0)
(-0.0856738 -0.00359061 0)
(-0.0847147 -0.00347484 0)
(-0.0827964 -0.00340737 0)
(-0.0799876 -0.0033503 0)
(-0.076447 -0.00326482 0)
(-0.0722287 -0.00323795 0)
(-0.0670939 -0.00341698 0)
(-0.0606448 -0.00383613 0)
(10.0008 0.122279 0)
(10.0676 0.272137 0)
(10.1383 0.342321 0)
(10.1915 0.367553 0)
(10.2161 0.377243 0)
(10.2123 0.385769 0)
(10.1866 0.395783 0)
(10.1458 0.40522 0)
(10.094 0.411969 0)
(10.033 0.415277 0)
(9.96332 0.41546 0)
(9.88493 0.413208 0)
(9.79809 0.40907 0)
(9.70347 0.403325 0)
(9.60187 0.396017 0)
(9.49434 0.387102 0)
(9.38179 0.376511 0)
(9.26524 0.364236 0)
(9.14544 0.350294 0)
(9.02323 0.334784 0)
(8.89947 0.317889 0)
(8.77496 0.29986 0)
(8.65048 0.280992 0)
(8.52675 0.261606 0)
(8.40441 0.242029 0)
(8.28405 0.222584 0)
(8.16616 0.20357 0)
(8.05118 0.185255 0)
(7.93943 0.167863 0)
(7.8312 0.151568 0)
(7.72667 0.136491 0)
(7.62595 0.122705 0)
(7.52909 0.110234 0)
(7.43609 0.0990651 0)
(7.34686 0.0891487 0)
(7.26132 0.0804188 0)
(7.17928 0.0727851 0)
(7.10057 0.0661686 0)
(7.02505 0.0604896 0)
(6.95256 0.0556592 0)
(6.88291 0.05158 0)
(6.81593 0.0481518 0)
(6.75144 0.0452777 0)
(6.68926 0.0428683 0)
(6.62924 0.0408448 0)
(6.57122 0.0391392 0)
(6.51506 0.0376942 0)
(6.46063 0.0364614 0)
(6.40781 0.0354009 0)
(6.35649 0.0344793 0)
(6.30656 0.0336697 0)
(6.25794 0.0329501 0)
(6.21055 0.0323029 0)
(6.1643 0.0317144 0)
(6.11913 0.0311739 0)
(6.07496 0.0306732 0)
(6.03175 0.0302064 0)
(5.98944 0.0297689 0)
(5.94796 0.0293577 0)
(5.90728 0.0289707 0)
(5.86734 0.0286068 0)
(5.8281 0.0282654 0)
(5.78952 0.0279463 0)
(5.75156 0.0276499 0)
(5.71417 0.0273765 0)
(5.67732 0.027127 0)
(5.64097 0.0269021 0)
(5.60507 0.0267028 0)
(5.5696 0.02653 0)
(5.5345 0.0263849 0)
(5.49976 0.0262684 0)
(5.46532 0.0261814 0)
(5.43115 0.026125 0)
(5.39722 0.0261 0)
(5.36347 0.0261074 0)
(5.32989 0.0261483 0)
(5.29641 0.0262238 0)
(5.26302 0.0263348 0)
(5.22966 0.0264826 0)
(5.19628 0.0266682 0)
(5.16286 0.0268928 0)
(5.12935 0.0271577 0)
(5.09569 0.0274642 0)
(5.06185 0.0278137 0)
(5.02777 0.0282074 0)
(4.99341 0.0286469 0)
(4.95871 0.0291337 0)
(4.92363 0.0296694 0)
(4.8881 0.0302556 0)
(4.85207 0.0308939 0)
(4.81549 0.0315861 0)
(4.77829 0.032334 0)
(4.7404 0.0331394 0)
(4.70176 0.034004 0)
(4.66231 0.0349298 0)
(4.62197 0.0359184 0)
(4.58067 0.0369717 0)
(4.53833 0.0380914 0)
(4.49486 0.039279 0)
(4.4502 0.0405362 0)
(4.40424 0.0418642 0)
(4.3569 0.0432642 0)
(4.3081 0.044737 0)
(4.25772 0.046283 0)
(4.20568 0.0479023 0)
(4.15186 0.0495939 0)
(4.09617 0.0513559 0)
(4.0385 0.0531854 0)
(3.97874 0.0550788 0)
(3.91677 0.0570315 0)
(3.85247 0.0590385 0)
(3.78574 0.0610926 0)
(3.71646 0.063186 0)
(3.6445 0.0653089 0)
(3.56976 0.06745 0)
(3.49213 0.0695956 0)
(3.41149 0.0717301 0)
(3.32776 0.0738353 0)
(3.24083 0.0758905 0)
(3.15063 0.0778722 0)
(3.05709 0.079754 0)
(2.96016 0.0815069 0)
(2.85983 0.0830989 0)
(2.75608 0.0844955 0)
(2.64895 0.0856598 0)
(2.53852 0.0865535 0)
(2.42489 0.0871367 0)
(2.30824 0.0873697 0)
(2.18879 0.0872136 0)
(2.06683 0.0866316 0)
(1.94273 0.0855911 0)
(1.81694 0.0840651 0)
(1.68999 0.0820355 0)
(1.5625 0.0794957 0)
(1.43517 0.0764515 0)
(1.30877 0.0729222 0)
(1.18413 0.0689424 0)
(1.0621 0.0645666 0)
(0.943522 0.0598741 0)
(0.829213 0.0549724 0)
(0.719902 0.0499918 0)
(0.616211 0.0451012 0)
(0.518685 0.040455 0)
(0.42773 0.0360913 0)
(0.343653 0.0320217 0)
(0.266693 0.0281184 0)
(0.196908 0.0241902 0)
(0.134364 0.0201477 0)
(0.0791993 0.016025 0)
(0.0312395 0.0119643 0)
(-0.00993561 0.00826682 0)
(-0.0450261 0.00515779 0)
(-0.0746153 0.00266887 0)
(-0.0989693 0.000466269 0)
(-0.118359 -0.00159193 0)
(-0.133215 -0.00340821 0)
(-0.144131 -0.00490163 0)
(-0.151462 -0.00648098 0)
(-0.155174 -0.00858512 0)
(-0.155105 -0.0111542 0)
(10.0003 0.0614123 0)
(10.0359 0.160323 0)
(10.0898 0.227823 0)
(10.1516 0.268451 0)
(10.2101 0.293285 0)
(10.2592 0.312151 0)
(10.298 0.330013 0)
(10.3292 0.347479 0)
(10.3556 0.363366 0)
(10.3789 0.376572 0)
(10.3993 0.3867 0)
(10.4165 0.393929 0)
(10.4298 0.398644 0)
(10.4388 0.401151 0)
(10.4434 0.401594 0)
(10.4434 0.399983 0)
(10.4391 0.396276 0)
(10.4303 0.390452 0)
(10.4173 0.382572 0)
(10.4001 0.372765 0)
(10.3788 0.361217 0)
(10.3536 0.34816 0)
(10.3247 0.333864 0)
(10.2925 0.318628 0)
(10.2571 0.302762 0)
(10.2189 0.286581 0)
(10.1783 0.270385 0)
(10.1356 0.254453 0)
(10.0911 0.239023 0)
(10.0453 0.224294 0)
(9.99841 0.21041 0)
(9.95077 0.197473 0)
(9.90263 0.185535 0)
(9.85425 0.174613 0)
(9.80578 0.164686 0)
(9.75742 0.155715 0)
(9.70926 0.14764 0)
(9.66143 0.140409 0)
(9.61401 0.133964 0)
(9.56703 0.128243 0)
(9.52051 0.12317 0)
(9.47446 0.118666 0)
(9.42887 0.114654 0)
(9.38375 0.111062 0)
(9.33908 0.107826 0)
(9.29487 0.10489 0)
(9.25109 0.102209 0)
(9.20772 0.099744 0)
(9.16476 0.0974619 0)
(9.12219 0.0953361 0)
(9.08 0.0933448 0)
(9.03816 0.09147 0)
(8.99667 0.0896972 0)
(8.95551 0.0880149 0)
(8.91467 0.0864143 0)
(8.87414 0.0848885 0)
(8.83391 0.0834323 0)
(8.79396 0.082042 0)
(8.7543 0.080715 0)
(8.7149 0.0794496 0)
(8.67575 0.0782448 0)
(8.63685 0.0771002 0)
(8.59818 0.0760157 0)
(8.55973 0.0749918 0)
(8.52149 0.0740291 0)
(8.48345 0.0731285 0)
(8.44558 0.072291 0)
(8.40788 0.0715178 0)
(8.37032 0.0708101 0)
(8.3329 0.0701696 0)
(8.29559 0.0695975 0)
(8.25836 0.0690957 0)
(8.22121 0.068666 0)
(8.18411 0.0683101 0)
(8.14703 0.06803 0)
(8.10994 0.0678275 0)
(8.07283 0.0677047 0)
(8.03566 0.0676637 0)
(7.99841 0.0677067 0)
(7.96103 0.0678359 0)
(7.9235 0.068054 0)
(7.88579 0.0683636 0)
(7.84784 0.0687675 0)
(7.80963 0.0692687 0)
(7.77112 0.0698705 0)
(7.73225 0.0705761 0)
(7.69298 0.0713893 0)
(7.65326 0.0723139 0)
(7.61304 0.073354 0)
(7.57227 0.0745137 0)
(7.53089 0.0757978 0)
(7.48883 0.0772109 0)
(7.44603 0.078758 0)
(7.40243 0.0804444 0)
(7.35795 0.0822754 0)
(7.31251 0.0842569 0)
(7.26605 0.0863945 0)
(7.21846 0.0886944 0)
(7.16967 0.0911627 0)
(7.11958 0.0938059 0)
(7.0681 0.0966303 0)
(7.01511 0.0996424 0)
(6.96051 0.102849 0)
(6.90418 0.106255 0)
(6.84601 0.109869 0)
(6.78585 0.113694 0)
(6.72359 0.117735 0)
(6.65907 0.121997 0)
(6.59215 0.126482 0)
(6.52268 0.131193 0)
(6.45048 0.136129 0)
(6.3754 0.14129 0)
(6.29724 0.146673 0)
(6.21583 0.152271 0)
(6.13096 0.158079 0)
(6.04245 0.164084 0)
(5.95008 0.170274 0)
(5.85364 0.176631 0)
(5.7529 0.183132 0)
(5.64765 0.189749 0)
(5.53767 0.19645 0)
(5.42271 0.203194 0)
(5.30256 0.209934 0)
(5.17699 0.216613 0)
(5.04579 0.223168 0)
(4.90876 0.229524 0)
(4.76571 0.235595 0)
(4.61648 0.241285 0)
(4.46094 0.246484 0)
(4.29901 0.25107 0)
(4.13063 0.254909 0)
(3.95585 0.257853 0)
(3.77476 0.259742 0)
(3.58758 0.260413 0)
(3.3946 0.259702 0)
(3.19626 0.257451 0)
(2.99317 0.25352 0)
(2.78609 0.247798 0)
(2.57602 0.240215 0)
(2.36417 0.230767 0)
(2.15202 0.219517 0)
(1.94126 0.206622 0)
(1.73387 0.192327 0)
(1.53202 0.176941 0)
(1.33792 0.160835 0)
(1.1537 0.144413 0)
(0.981214 0.128088 0)
(0.82184 0.112352 0)
(0.676211 0.0977572 0)
(0.544163 0.0846434 0)
(0.42535 0.0729879 0)
(0.319469 0.0622775 0)
(0.226134 0.0519547 0)
(0.145295 0.0418983 0)
(0.0762467 0.0322052 0)
(0.0178984 0.0233952 0)
(-0.0311947 0.0156845 0)
(-0.071819 0.00848652 0)
(-0.104406 0.00105805 0)
(-0.129435 -0.00651543 0)
(10.0002 0.0417813 0)
(10.0198 0.117276 0)
(10.0537 0.178916 0)
(10.0983 0.224503 0)
(10.1468 0.25657 0)
(10.1935 0.280049 0)
(10.2355 0.29931 0)
(10.2732 0.316685 0)
(10.3082 0.33256 0)
(10.3422 0.346428 0)
(10.376 0.357802 0)
(10.4096 0.366544 0)
(10.4428 0.372811 0)
(10.4748 0.376857 0)
(10.5055 0.378878 0)
(10.5345 0.378974 0)
(10.5616 0.377182 0)
(10.5867 0.37353 0)
(10.6096 0.368084 0)
(10.6301 0.360951 0)
(10.6482 0.352277 0)
(10.6636 0.342244 0)
(10.6764 0.331066 0)
(10.6863 0.318976 0)
(10.6935 0.306223 0)
(10.698 0.293062 0)
(10.6999 0.279739 0)
(10.6993 0.266485 0)
(10.6964 0.253505 0)
(10.6914 0.240974 0)
(10.6846 0.229032 0)
(10.6761 0.217781 0)
(10.6661 0.207293 0)
(10.6549 0.197604 0)
(10.6427 0.18873 0)
(10.6295 0.180659 0)
(10.6156 0.173368 0)
(10.6011 0.166809 0)
(10.586 0.160923 0)
(10.5705 0.155647 0)
(10.5546 0.150921 0)
(10.5383 0.146684 0)
(10.5217 0.142882 0)
(10.5048 0.139462 0)
(10.4876 0.136374 0)
(10.4701 0.133576 0)
(10.4524 0.131029 0)
(10.4345 0.128698 0)
(10.4163 0.126555 0)
(10.3978 0.124573 0)
(10.3791 0.12273 0)
(10.3602 0.121009 0)
(10.3411 0.119395 0)
(10.3217 0.117873 0)
(10.302 0.116435 0)
(10.2821 0.115072 0)
(10.262 0.113778 0)
(10.2416 0.112549 0)
(10.221 0.111381 0)
(10.2001 0.110271 0)
(10.179 0.10922 0)
(10.1576 0.108225 0)
(10.1361 0.107288 0)
(10.1142 0.106409 0)
(10.0921 0.10559 0)
(10.0698 0.104832 0)
(10.0472 0.104136 0)
(10.0244 0.103505 0)
(10.0014 0.102942 0)
(9.97802 0.102449 0)
(9.95443 0.102028 0)
(9.93057 0.101683 0)
(9.90643 0.101418 0)
(9.882 0.101236 0)
(9.85728 0.10114 0)
(9.83226 0.101134 0)
(9.80691 0.101223 0)
(9.78122 0.10141 0)
(9.75519 0.101699 0)
(9.72879 0.102094 0)
(9.70199 0.102602 0)
(9.67479 0.103225 0)
(9.64716 0.10397 0)
(9.61907 0.104842 0)
(9.59049 0.105846 0)
(9.56139 0.106989 0)
(9.53175 0.108277 0)
(9.50152 0.109716 0)
(9.47068 0.111314 0)
(9.43917 0.113077 0)
(9.40696 0.115015 0)
(9.374 0.117133 0)
(9.34025 0.119443 0)
(9.30564 0.121951 0)
(9.27011 0.124668 0)
(9.23362 0.127603 0)
(9.1961 0.130767 0)
(9.15747 0.134171 0)
(9.11766 0.137824 0)
(9.07659 0.141739 0)
(9.03417 0.145928 0)
(8.99033 0.150402 0)
(8.94495 0.155173 0)
(8.89793 0.160255 0)
(8.84918 0.16566 0)
(8.79856 0.171401 0)
(8.74596 0.177489 0)
(8.69124 0.183939 0)
(8.63425 0.190761 0)
(8.57485 0.197969 0)
(8.51288 0.205571 0)
(8.44817 0.213578 0)
(8.38052 0.221997 0)
(8.30976 0.230835 0)
(8.23567 0.240095 0)
(8.15803 0.24978 0)
(8.07661 0.259889 0)
(7.99117 0.270415 0)
(7.90145 0.281351 0)
(7.80717 0.29268 0)
(7.70804 0.304384 0)
(7.60376 0.316433 0)
(7.494 0.328794 0)
(7.37844 0.341421 0)
(7.25673 0.354259 0)
(7.1285 0.367243 0)
(6.99338 0.380291 0)
(6.85099 0.393311 0)
(6.70094 0.406189 0)
(6.54284 0.418799 0)
(6.37631 0.43099 0)
(6.20096 0.442595 0)
(6.01644 0.45342 0)
(5.82242 0.463247 0)
(5.61861 0.471832 0)
(5.40479 0.478905 0)
(5.18078 0.484174 0)
(4.94654 0.487332 0)
(4.70214 0.488056 0)
(4.44779 0.486016 0)
(4.18396 0.480876 0)
(3.91132 0.472313 0)
(3.63088 0.46004 0)
(3.344 0.443832 0)
(3.05248 0.42358 0)
(2.75864 0.399336 0)
(2.46536 0.371381 0)
(2.17614 0.340251 0)
(1.89497 0.306787 0)
(1.62617 0.272155 0)
(1.37409 0.237675 0)
(1.14259 0.204666 0)
(0.934343 0.174149 0)
(0.750399 0.147187 0)
(0.589267 0.124159 0)
(0.448792 0.104438 0)
(0.32665 0.0863472 0)
(0.222109 0.0686532 0)
(0.133769 0.0506089 0)
(0.0597788 0.0328954 0)
(10.0001 0.0316628 0)
(10.0128 0.0917413 0)
(10.036 0.145038 0)
(10.0682 0.188698 0)
(10.1059 0.222282 0)
(10.1451 0.247719 0)
(10.1829 0.267814 0)
(10.2183 0.284869 0)
(10.2518 0.299982 0)
(10.2843 0.313284 0)
(10.3168 0.324519 0)
(10.3498 0.333476 0)
(10.383 0.340136 0)
(10.4162 0.344638 0)
(10.449 0.34716 0)
(10.4811 0.347851 0)
(10.5124 0.346813 0)
(10.5427 0.344126 0)
(10.5719 0.339867 0)
(10.5998 0.334136 0)
(10.6264 0.327061 0)
(10.6514 0.318796 0)
(10.6747 0.309521 0)
(10.6961 0.299429 0)
(10.7157 0.28873 0)
(10.7335 0.277633 0)
(10.7492 0.266346 0)
(10.7632 0.255061 0)
(10.7754 0.243954 0)
(10.7859 0.233177 0)
(10.7948 0.222854 0)
(10.8024 0.213083 0)
(10.8087 0.203931 0)
(10.8139 0.195444 0)
(10.8182 0.187642 0)
(10.8216 0.180525 0)
(10.8243 0.174075 0)
(10.8263 0.168257 0)
(10.8278 0.163025 0)
(10.8289 0.158331 0)
(10.8295 0.154127 0)
(10.8297 0.150367 0)
(10.8296 0.147008 0)
(10.8291 0.144007 0)
(10.8283 0.141326 0)
(10.8273 0.138925 0)
(10.8259 0.136769 0)
(10.8243 0.134828 0)
(10.8224 0.133073 0)
(10.8203 0.131479 0)
(10.8178 0.130025 0)
(10.8151 0.128692 0)
(10.8121 0.127466 0)
(10.8088 0.126334 0)
(10.8052 0.125285 0)
(10.8013 0.124311 0)
(10.7971 0.123406 0)
(10.7926 0.122565 0)
(10.7877 0.121784 0)
(10.7826 0.121061 0)
(10.7771 0.120395 0)
(10.7713 0.119785 0)
(10.7652 0.119232 0)
(10.7587 0.118737 0)
(10.7519 0.118301 0)
(10.7448 0.117927 0)
(10.7374 0.117616 0)
(10.7295 0.117371 0)
(10.7214 0.117195 0)
(10.7129 0.117092 0)
(10.704 0.117065 0)
(10.6948 0.117118 0)
(10.6853 0.117255 0)
(10.6753 0.117481 0)
(10.665 0.117799 0)
(10.6543 0.118216 0)
(10.6432 0.118735 0)
(10.6316 0.119362 0)
(10.6197 0.120103 0)
(10.6074 0.120963 0)
(10.5946 0.121949 0)
(10.5813 0.123068 0)
(10.5676 0.124325 0)
(10.5533 0.125729 0)
(10.5386 0.127286 0)
(10.5234 0.129005 0)
(10.5075 0.130895 0)
(10.4912 0.132963 0)
(10.4742 0.135221 0)
(10.4566 0.137677 0)
(10.4383 0.140342 0)
(10.4193 0.143227 0)
(10.3996 0.146343 0)
(10.3791 0.149703 0)
(10.3578 0.15332 0)
(10.3357 0.157206 0)
(10.3127 0.161377 0)
(10.2887 0.165845 0)
(10.2637 0.170628 0)
(10.2376 0.175741 0)
(10.2104 0.1812 0)
(10.182 0.187023 0)
(10.1523 0.193228 0)
(10.1212 0.199832 0)
(10.0887 0.206856 0)
(10.0547 0.214318 0)
(10.019 0.222239 0)
(9.98163 0.230639 0)
(9.94237 0.239539 0)
(9.90113 0.248958 0)
(9.85778 0.258917 0)
(9.81218 0.269437 0)
(9.76417 0.280537 0)
(9.71359 0.292235 0)
(9.66025 0.304549 0)
(9.60398 0.317494 0)
(9.54456 0.331084 0)
(9.48177 0.345331 0)
(9.41538 0.36024 0)
(9.34512 0.375817 0)
(9.27073 0.392059 0)
(9.1919 0.408959 0)
(9.10832 0.426503 0)
(9.01965 0.444669 0)
(8.92552 0.463425 0)
(8.82554 0.482729 0)
(8.7193 0.502524 0)
(8.60634 0.522742 0)
(8.48619 0.543296 0)
(8.35835 0.564081 0)
(8.22229 0.584972 0)
(8.07744 0.60582 0)
(7.92322 0.626451 0)
(7.75903 0.64666 0)
(7.58421 0.666207 0)
(7.39814 0.684818 0)
(7.20016 0.702184 0)
(6.98963 0.717961 0)
(6.76593 0.731769 0)
(6.52848 0.743192 0)
(6.27677 0.751782 0)
(6.0104 0.757058 0)
(5.72912 0.758509 0)
(5.43288 0.755589 0)
(5.12185 0.747746 0)
(4.79654 0.734435 0)
(4.45788 0.715142 0)
(4.10729 0.689415 0)
(3.74682 0.656922 0)
(3.37925 0.617564 0)
(3.00829 0.571565 0)
(2.63881 0.519626 0)
(2.27692 0.463075 0)
(1.92993 0.403932 0)
(1.60553 0.344971 0)
(1.31095 0.289264 0)
(1.05126 0.239189 0)
(0.828494 0.196395 0)
(0.639466 0.16065 0)
(0.478669 0.129774 0)
(10.0001 0.0253328 0)
(10.0092 0.0742932 0)
(10.0261 0.11944 0)
(10.0502 0.158589 0)
(10.0797 0.190696 0)
(10.1121 0.216193 0)
(10.1451 0.236532 0)
(10.1773 0.253355 0)
(10.2083 0.267847 0)
(10.2386 0.280503 0)
(10.2688 0.291333 0)
(10.2993 0.300188 0)
(10.3301 0.306984 0)
(10.3611 0.311758 0)
(10.3921 0.31464 0)
(10.4226 0.315783 0)
(10.4527 0.315322 0)
(10.482 0.313365 0)
(10.5106 0.310006 0)
(10.5383 0.305342 0)
(10.5649 0.299487 0)
(10.5905 0.292573 0)
(10.6148 0.284753 0)
(10.6378 0.276193 0)
(10.6594 0.267069 0)
(10.6795 0.257562 0)
(10.6982 0.247846 0)
(10.7155 0.238089 0)
(10.7314 0.228441 0)
(10.746 0.219036 0)
(10.7594 0.209986 0)
(10.7716 0.201378 0)
(10.7829 0.19328 0)
(10.7933 0.185735 0)
(10.8029 0.178767 0)
(10.8119 0.172381 0)
(10.8203 0.166567 0)
(10.8281 0.161301 0)
(10.8356 0.15655 0)
(10.8427 0.152281 0)
(10.8494 0.148455 0)
(10.8559 0.145036 0)
(10.8622 0.141989 0)
(10.8682 0.139279 0)
(10.874 0.136872 0)
(10.8797 0.134734 0)
(10.8851 0.132834 0)
(10.8904 0.131143 0)
(10.8955 0.129635 0)
(10.9005 0.128289 0)
(10.9053 0.127083 0)
(10.9099 0.126002 0)
(10.9143 0.125029 0)
(10.9186 0.124155 0)
(10.9226 0.123368 0)
(10.9265 0.12266 0)
(10.9301 0.122026 0)
(10.9336 0.12146 0)
(10.9368 0.120959 0)
(10.9398 0.120522 0)
(10.9426 0.120145 0)
(10.9451 0.119831 0)
(10.9474 0.119577 0)
(10.9495 0.119387 0)
(10.9513 0.11926 0)
(10.9528 0.1192 0)
(10.9541 0.119208 0)
(10.9551 0.119288 0)
(10.9559 0.119442 0)
(10.9564 0.119676 0)
(10.9566 0.119991 0)
(10.9565 0.120393 0)
(10.9562 0.120886 0)
(10.9555 0.121475 0)
(10.9546 0.122164 0)
(10.9533 0.12296 0)
(10.9517 0.123867 0)
(10.9498 0.124892 0)
(10.9476 0.126041 0)
(10.945 0.127321 0)
(10.942 0.128738 0)
(10.9387 0.130301 0)
(10.9351 0.132017 0)
(10.931 0.133895 0)
(10.9265 0.135943 0)
(10.9217 0.138171 0)
(10.9163 0.140589 0)
(10.9106 0.143207 0)
(10.9043 0.146036 0)
(10.8976 0.149088 0)
(10.8904 0.152375 0)
(10.8826 0.155911 0)
(10.8743 0.159708 0)
(10.8654 0.163782 0)
(10.8559 0.168148 0)
(10.8457 0.172821 0)
(10.8349 0.177819 0)
(10.8233 0.18316 0)
(10.811 0.188862 0)
(10.798 0.194945 0)
(10.784 0.201429 0)
(10.7692 0.208336 0)
(10.7535 0.215688 0)
(10.7368 0.223508 0)
(10.719 0.231822 0)
(10.7001 0.240653 0)
(10.68 0.250028 0)
(10.6587 0.259974 0)
(10.636 0.270519 0)
(10.6119 0.281691 0)
(10.5863 0.293519 0)
(10.559 0.306032 0)
(10.53 0.31926 0)
(10.4992 0.333232 0)
(10.4663 0.347978 0)
(10.4313 0.363525 0)
(10.3941 0.3799 0)
(10.3543 0.397131 0)
(10.3119 0.41524 0)
(10.2667 0.434248 0)
(10.2184 0.454174 0)
(10.1668 0.47503 0)
(10.1116 0.496824 0)
(10.0526 0.519558 0)
(9.98945 0.543227 0)
(9.92177 0.567814 0)
(9.84922 0.593294 0)
(9.77139 0.619628 0)
(9.68785 0.646763 0)
(9.5981 0.674627 0)
(9.50164 0.70313 0)
(9.3979 0.73216 0)
(9.28624 0.761579 0)
(9.16602 0.791221 0)
(9.0365 0.820893 0)
(8.89692 0.850367 0)
(8.74645 0.87938 0)
(8.58422 0.90763 0)
(8.40931 0.934771 0)
(8.22075 0.960419 0)
(8.01756 0.984137 0)
(7.79873 1.00544 0)
(7.56325 1.02379 0)
(7.31013 1.03857 0)
(7.03845 1.0491 0)
(6.74741 1.05467 0)
(6.43632 1.05447 0)
(6.10477 1.04772 0)
(5.75265 1.03359 0)
(5.38031 1.01129 0)
(4.98862 0.980073 0)
(4.57926 0.939322 0)
(4.15484 0.888568 0)
(3.71913 0.827615 0)
(3.27721 0.756774 0)
(2.83591 0.677144 0)
(2.40416 0.590965 0)
(1.99323 0.50178 0)
(1.61535 0.414575 0)
(1.28107 0.334778 0)
(10.0001 0.0208371 0)
(10.007 0.0615062 0)
(10.02 0.0997292 0)
(10.0387 0.134104 0)
(10.0623 0.163617 0)
(10.0892 0.188087 0)
(10.1177 0.2081 0)
(10.1466 0.224642 0)
(10.1751 0.238662 0)
(10.2033 0.250751 0)
(10.2314 0.261111 0)
(10.2596 0.269716 0)
(10.2882 0.276493 0)
(10.317 0.281433 0)
(10.3459 0.284615 0)
(10.3745 0.286164 0)
(10.4028 0.286216 0)
(10.4305 0.284892 0)
(10.4576 0.282295 0)
(10.4839 0.278526 0)
(10.5094 0.273686 0)
(10.5339 0.267892 0)
(10.5574 0.261276 0)
(10.5798 0.25398 0)
(10.6011 0.246156 0)
(10.6211 0.237958 0)
(10.64 0.229536 0)
(10.6576 0.221034 0)
(10.6741 0.212585 0)
(10.6895 0.204305 0)
(10.7038 0.196294 0)
(10.7172 0.188633 0)
(10.7298 0.181384 0)
(10.7415 0.174592 0)
(10.7526 0.168281 0)
(10.7631 0.162462 0)
(10.7731 0.157133 0)
(10.7827 0.15228 0)
(10.7919 0.147883 0)
(10.8007 0.143915 0)
(10.8093 0.140349 0)
(10.8177 0.137156 0)
(10.8259 0.134307 0)
(10.8339 0.131771 0)
(10.8418 0.12952 0)
(10.8495 0.127525 0)
(10.8571 0.125759 0)
(10.8646 0.124195 0)
(10.872 0.122812 0)
(10.8793 0.121588 0)
(10.8865 0.120506 0)
(10.8936 0.119551 0)
(10.9006 0.118708 0)
(10.9074 0.117967 0)
(10.9142 0.117319 0)
(10.9208 0.116755 0)
(10.9273 0.116271 0)
(10.9337 0.115861 0)
(10.9399 0.115522 0)
(10.9461 0.115252 0)
(10.952 0.11505 0)
(10.9578 0.114915 0)
(10.9635 0.114847 0)
(10.969 0.114848 0)
(10.9744 0.114918 0)
(10.9795 0.11506 0)
(10.9845 0.115277 0)
(10.9894 0.115571 0)
(10.994 0.115946 0)
(10.9985 0.116405 0)
(11.0028 0.116953 0)
(11.0069 0.117593 0)
(11.0108 0.118331 0)
(11.0145 0.11917 0)
(11.018 0.120118 0)
(11.0212 0.121178 0)
(11.0243 0.122358 0)
(11.0271 0.123664 0)
(11.0297 0.125102 0)
(11.0321 0.12668 0)
(11.0342 0.128405 0)
(11.036 0.130286 0)
(11.0376 0.132331 0)
(11.039 0.134549 0)
(11.04 0.13695 0)
(11.0408 0.139543 0)
(11.0412 0.142341 0)
(11.0413 0.145354 0)
(11.0411 0.148594 0)
(11.0406 0.152074 0)
(11.0397 0.155808 0)
(11.0385 0.15981 0)
(11.0368 0.164095 0)
(11.0348 0.16868 0)
(11.0323 0.17358 0)
(11.0294 0.178814 0)
(11.0261 0.184401 0)
(11.0222 0.19036 0)
(11.0179 0.196713 0)
(11.013 0.203481 0)
(11.0075 0.210688 0)
(11.0015 0.218357 0)
(10.9948 0.226515 0)
(10.9874 0.235187 0)
(10.9794 0.244402 0)
(10.9706 0.25419 0)
(10.9611 0.264579 0)
(10.9507 0.275603 0)
(10.9394 0.287293 0)
(10.9272 0.299685 0)
(10.914 0.312812 0)
(10.8997 0.326711 0)
(10.8843 0.341419 0)
(10.8676 0.356973 0)
(10.8497 0.373412 0)
(10.8304 0.390774 0)
(10.8096 0.409097 0)
(10.7871 0.428419 0)
(10.7629 0.448778 0)
(10.7369 0.470209 0)
(10.7088 0.492746 0)
(10.6786 0.516422 0)
(10.646 0.541263 0)
(10.6108 0.567295 0)
(10.5728 0.594535 0)
(10.5318 0.622995 0)
(10.4874 0.65268 0)
(10.4394 0.683583 0)
(10.3874 0.715687 0)
(10.331 0.74896 0)
(10.2699 0.783356 0)
(10.2035 0.818808 0)
(10.1313 0.85523 0)
(10.0528 0.892512 0)
(9.96724 0.930519 0)
(9.87398 0.969087 0)
(9.77221 1.00802 0)
(9.6611 1.04707 0)
(9.53968 1.08596 0)
(9.40696 1.12438 0)
(9.26182 1.16194 0)
(9.10307 1.1982 0)
(8.92945 1.23267 0)
(8.7396 1.26479 0)
(8.53211 1.29392 0)
(8.30556 1.31936 0)
(8.05845 1.34033 0)
(7.78935 1.35596 0)
(7.49686 1.36533 0)
(7.17969 1.36743 0)
(6.8368 1.36117 0)
(6.46743 1.3454 0)
(6.07132 1.31895 0)
(5.64882 1.28066 0)
(5.20109 1.2295 0)
(4.73046 1.16467 0)
(4.24072 1.08578 0)
(3.73754 0.992913 0)
(3.22872 0.887038 0)
(2.72481 0.770598 0)
(10.0001 0.0174421 0)
(10.0056 0.0516769 0)
(10.016 0.0842462 0)
(10.0311 0.114219 0)
(10.0503 0.14079 0)
(10.0729 0.163585 0)
(10.0976 0.18274 0)
(10.1233 0.19876 0)
(10.1494 0.212283 0)
(10.1756 0.223831 0)
(10.2017 0.233689 0)
(10.2281 0.241934 0)
(10.2547 0.24855 0)
(10.2816 0.253524 0)
(10.3085 0.256898 0)
(10.3354 0.258765 0)
(10.3621 0.259242 0)
(10.3883 0.258448 0)
(10.4139 0.256489 0)
(10.4389 0.253464 0)
(10.4632 0.249472 0)
(10.4867 0.244617 0)
(10.5093 0.239014 0)
(10.531 0.232786 0)
(10.5516 0.226063 0)
(10.5712 0.218979 0)
(10.5897 0.211663 0)
(10.6072 0.20424 0)
(10.6236 0.196826 0)
(10.6391 0.189523 0)
(10.6537 0.18242 0)
(10.6674 0.175591 0)
(10.6803 0.169094 0)
(10.6925 0.162969 0)
(10.704 0.157246 0)
(10.715 0.151939 0)
(10.7256 0.14705 0)
(10.7357 0.142575 0)
(10.7454 0.1385 0)
(10.7548 0.134808 0)
(10.764 0.131478 0)
(10.7729 0.128487 0)
(10.7817 0.125811 0)
(10.7902 0.123424 0)
(10.7987 0.121301 0)
(10.807 0.119419 0)
(10.8152 0.117753 0)
(10.8233 0.116283 0)
(10.8313 0.114987 0)
(10.8392 0.113847 0)
(10.847 0.112848 0)
(10.8548 0.111976 0)
(10.8624 0.111218 0)
(10.87 0.110564 0)
(10.8775 0.110006 0)
(10.8849 0.109537 0)
(10.8922 0.10915 0)
(10.8994 0.108843 0)
(10.9066 0.10861 0)
(10.9136 0.108451 0)
(10.9205 0.108363 0)
(10.9273 0.108347 0)
(10.9341 0.108403 0)
(10.9407 0.108531 0)
(10.9471 0.108733 0)
(10.9535 0.109011 0)
(10.9597 0.109368 0)
(10.9659 0.109806 0)
(10.9719 0.110329 0)
(10.9777 0.110941 0)
(10.9834 0.111645 0)
(10.989 0.112446 0)
(10.9945 0.113349 0)
(10.9998 0.114359 0)
(11.0049 0.115482 0)
(11.0099 0.116722 0)
(11.0148 0.118088 0)
(11.0195 0.119585 0)
(11.024 0.12122 0)
(11.0283 0.123002 0)
(11.0325 0.124937 0)
(11.0365 0.127035 0)
(11.0403 0.129305 0)
(11.0439 0.131756 0)
(11.0473 0.134398 0)
(11.0505 0.137242 0)
(11.0535 0.1403 0)
(11.0563 0.143583 0)
(11.0588 0.147104 0)
(11.0611 0.150877 0)
(11.0632 0.154915 0)
(11.065 0.159235 0)
(11.0665 0.163852 0)
(11.0677 0.168782 0)
(11.0687 0.174045 0)
(11.0694 0.179658 0)
(11.0697 0.185641 0)
(11.0697 0.192017 0)
(11.0694 0.198806 0)
(11.0687 0.206032 0)
(11.0676 0.21372 0)
(11.0661 0.221896 0)
(11.0642 0.230587 0)
(11.0619 0.239822 0)
(11.0591 0.249631 0)
(11.0559 0.260044 0)
(11.0521 0.271097 0)
(11.0478 0.282822 0)
(11.0429 0.295255 0)
(11.0374 0.308435 0)
(11.0314 0.3224 0)
(11.0246 0.33719 0)
(11.0171 0.352847 0)
(11.0089 0.369414 0)
(10.9999 0.386935 0)
(10.99 0.405455 0)
(10.9792 0.42502 0)
(10.9674 0.445675 0)
(10.9545 0.467469 0)
(10.9405 0.490446 0)
(10.9253 0.514653 0)
(10.9088 0.540136 0)
(10.8908 0.566937 0)
(10.8713 0.595098 0)
(10.85 0.624657 0)
(10.8269 0.655648 0)
(10.8017 0.688098 0)
(10.7743 0.722031 0)
(10.7444 0.757461 0)
(10.7117 0.794391 0)
(10.6761 0.832816 0)
(10.637 0.872714 0)
(10.5941 0.91405 0)
(10.5471 0.95677 0)
(10.4954 1.0008 0)
(10.4384 1.04605 0)
(10.3756 1.09238 0)
(10.3062 1.13963 0)
(10.2295 1.18762 0)
(10.1445 1.23611 0)
(10.0504 1.2848 0)
(9.94591 1.33337 0)
(9.82993 1.3814 0)
(9.70112 1.42845 0)
(9.55802 1.47397 0)
(9.39906 1.51734 0)
(9.22255 1.55786 0)
(9.02667 1.59472 0)
(8.80952 1.62702 0)
(8.56913 1.65376 0)
(8.30348 1.67382 0)
(8.01061 1.68598 0)
(7.68862 1.68892 0)
(7.33581 1.68119 0)
(6.95078 1.66127 0)
(6.53265 1.6276 0)
(6.08131 1.57863 0)
(5.59759 1.51288 0)
(5.08366 1.42914 0)
(4.54358 1.32681 0)
(10 0.0147647 0)
(10.0046 0.0438386 0)
(10.0132 0.0717487 0)
(10.0257 0.0978086 0)
(10.0419 0.121428 0)
(10.0611 0.142214 0)
(10.0826 0.160096 0)
(10.1056 0.175287 0)
(10.1293 0.188165 0)
(10.1535 0.19912 0)
(10.1779 0.20843 0)
(10.2025 0.216234 0)
(10.2274 0.222569 0)
(10.2526 0.227443 0)
(10.278 0.230884 0)
(10.3033 0.232958 0)
(10.3285 0.233759 0)
(10.3533 0.23339 0)
(10.3778 0.231956 0)
(10.4016 0.229552 0)
(10.4249 0.226273 0)
(10.4474 0.222214 0)
(10.4692 0.217478 0)
(10.4901 0.21217 0)
(10.5102 0.206405 0)
(10.5293 0.200295 0)
(10.5475 0.193954 0)
(10.5648 0.18749 0)
(10.5812 0.181003 0)
(10.5966 0.174583 0)
(10.6112 0.168309 0)
(10.6251 0.162247 0)
(10.6382 0.15645 0)
(10.6506 0.150958 0)
(10.6625 0.1458 0)
(10.6738 0.140992 0)
(10.6846 0.136543 0)
(10.695 0.132451 0)
(10.705 0.12871 0)
(10.7147 0.125307 0)
(10.7241 0.122228 0)
(10.7333 0.119454 0)
(10.7423 0.116965 0)
(10.7511 0.114741 0)
(10.7598 0.11276 0)
(10.7683 0.111003 0)
(10.7767 0.109448 0)
(10.785 0.108078 0)
(10.7931 0.106875 0)
(10.8012 0.105823 0)
(10.8092 0.104908 0)
(10.8171 0.104118 0)
(10.825 0.103441 0)
(10.8327 0.102869 0)
(10.8404 0.102393 0)
(10.8479 0.102007 0)
(10.8554 0.101706 0)
(10.8629 0.101485 0)
(10.8702 0.101342 0)
(10.8774 0.101275 0)
(10.8846 0.101282 0)
(10.8916 0.101362 0)
(10.8986 0.101517 0)
(10.9055 0.101747 0)
(10.9123 0.102054 0)
(10.9189 0.102439 0)
(10.9255 0.102905 0)
(10.932 0.103455 0)
(10.9384 0.104093 0)
(10.9446 0.104822 0)
(10.9508 0.105646 0)
(10.9568 0.106571 0)
(10.9627 0.1076 0)
(10.9685 0.108739 0)
(10.9742 0.109994 0)
(10.9798 0.111371 0)
(10.9852 0.112876 0)
(10.9905 0.114516 0)
(10.9957 0.116299 0)
(11.0007 0.118233 0)
(11.0056 0.120325 0)
(11.0104 0.122584 0)
(11.015 0.12502 0)
(11.0194 0.127643 0)
(11.0237 0.130463 0)
(11.0279 0.133491 0)
(11.0318 0.136738 0)
(11.0356 0.140218 0)
(11.0392 0.143943 0)