/*--------------------------------*- C++ -*----------------------------------*\
| =========                 |                                                 |
| \\      /  F ield         | OpenFOAM: The Open Source CFD Toolbox           |
|  \\    /   O peration     | Version:  2306                                  |
|   \\  /    A nd           | Website:  www.openfoam.com                      |
|    \\/     M anipulation  |                                                 |
\*---------------------------------------------------------------------------*/
FoamFile
{
    version     2.0;
    format      ascii;
    arch        "LSB;label=32;scalar=64";
    class       volScalarField;
    location    "0.175";
    object      p;
}
// * * * * * * * * * * * * * * * * * * * * * * * * * * * * * * * * * * * * * //

dimensions      [0 2 -2 0 0 0 0];

internalField   nonuniform List<scalar> 
4400
(
438.013
436.997
436.09
435.418
434.968
434.661
434.417
434.188
433.955
433.714
433.468
433.22
432.973
432.728
432.483
432.24
431.997
431.753
431.509
431.265
431.02
430.776
430.532
430.288
430.046
429.805
429.567
429.33
429.097
428.868
428.642
428.422
428.206
427.997
427.794
427.599
427.412
427.234
427.065
426.907
426.759
426.624
426.5
426.39
426.292
426.209
426.14
426.084
426.043
426.015
426.001
425.998
426.005
426.02
426.039
426.058
426.071
426.074
426.058
426.015
425.937
425.817
425.65
425.439
425.196
424.991
424.957
425.213
425.784
426.618
427.538
428.149
428.057
427.642
427.397
427.414
427.818
427.704
427.536
427.858
436.551
436.208
435.776
435.334
434.943
434.618
434.35
434.114
433.891
433.666
433.435
433.198
432.957
432.714
432.471
432.228
431.986
431.743
431.5
431.257
431.014
430.771
430.528
430.285
430.044
429.803
429.566
429.33
429.097
428.867
428.642
428.421
428.205
427.996
427.793
427.597
427.409
427.229
427.059
426.899
426.748
426.61
426.483
426.37
426.269
426.182
426.108
426.048
426.003
425.97
425.95
425.942
425.944
425.953
425.969
425.983
425.994
425.994
425.978
425.934
425.859
425.74
425.576
425.364
425.132
424.931
424.901
425.203
425.909
426.995
428.261
429.062
428.411
427.248
426.864
426.805
427.093
427.417
427.636
428.132
436.004
435.839
435.582
435.264
434.93
434.615
434.334
434.084
433.855
433.633
433.41
433.181
432.946
432.706
432.464
432.222
431.979
431.737
431.494
431.252
431.01
430.768
430.525
430.284
430.043
429.803
429.565
429.329
429.097
428.866
428.641
428.419
428.202
427.991
427.786
427.588
427.396
427.213
427.038
426.873
426.717
426.571
426.436
426.312
426.2
426.1
426.011
425.935
425.87
425.818
425.776
425.745
425.721
425.704
425.689
425.677
425.658
425.632
425.59
425.529
425.443
425.329
425.191
425.044
424.917
424.893
425.026
425.403
426.005
426.806
427.562
427.998
427.823
427.374
427.235
427.373
428.226
428.212
427.087
426.774
435.589
435.489
435.315
435.083
434.817
434.544
434.282
434.037
433.807
433.586
433.366
433.144
432.916
432.683
432.445
432.206
431.965
431.724
431.483
431.242
431
430.759
430.518
430.277
430.036
429.797
429.559
429.323
429.09
428.859
428.633
428.41
428.191
427.977
427.769
427.567
427.372
427.183
427.002
426.829
426.664
426.509
426.362
426.226
426.098
425.983
425.875
425.78
425.692
425.616
425.546
425.485
425.429
425.378
425.328
425.277
425.221
425.159
425.083
424.996
424.891
424.778
424.658
424.562
424.503
424.544
424.686
424.97
425.367
425.865
426.356
426.735
426.93
426.924
426.916
426.896
426.975
426.66
426.371
427.668
435.289
435.221
435.096
434.922
434.71
434.477
434.239
434.005
433.777
433.556
433.338
433.118
432.894
432.665
432.432
432.195
431.956
431.716
431.476
431.235
430.994
430.753
430.512
430.271
430.03
429.791
429.553
429.317
429.082
428.85
428.622
428.397
428.176
427.958
427.747
427.54
427.34
427.145
426.956
426.776
426.602
426.436
426.277
426.127
425.985
425.852
425.726
425.609
425.498
425.396
425.299
425.206
425.118
425.03
424.943
424.852
424.759
424.654
424.545
424.423
424.297
424.166
424.049
423.949
423.896
423.896
423.972
424.125
424.358
424.658
424.987
425.295
425.554
425.689
425.76
425.8
425.919
426.252
426.725
427.622
435.071
435.019
434.922
434.784
434.609
434.408
434.193
433.972
433.75
433.531
433.313
433.094
432.872
432.647
432.416
432.183
431.946
431.707
431.467
431.227
430.986
430.745
430.503
430.262
430.021
429.782
429.543
429.305
429.069
428.836
428.605
428.378
428.153
427.933
427.717
427.506
427.3
427.098
426.903
426.714
426.531
426.353
426.183
426.019
425.863
425.712
425.567
425.429
425.296
425.167
425.043
424.919
424.799
424.677
424.553
424.424
424.291
424.149
424.001
423.846
423.687
423.531
423.383
423.252
423.15
423.082
423.069
423.093
423.202
423.325
423.522
423.699
423.878
424.013
424.119
424.265
424.498
424.971
425.566
426.359
434.912
434.87
434.789
434.672
434.522
434.344
434.148
433.94
433.726
433.509
433.292
433.074
432.853
432.629
432.401
432.17
431.935
431.698
431.459
431.218
430.977
430.735
430.494
430.252
430.01
429.77
429.53
429.291
429.053
428.819
428.585
428.355
428.127
427.903
427.683
427.466
427.254
427.046
426.843
426.646
426.452
426.265
426.081
425.905
425.733
425.565
425.402
425.244
425.087
424.935
424.783
424.63
424.479
424.323
424.164
424
423.827
423.65
423.461
423.272
423.07
422.877
422.683
422.496
422.332
422.18
422.069
421.984
421.945
421.938
421.966
422.008
422.065
422.124
422.202
422.351
422.583
422.993
423.581
424.349
434.8
434.763
434.692
434.589
434.453
434.292
434.11
433.912
433.705
433.492
433.276
433.058
432.838
432.615
432.388
432.158
431.925
431.689
431.45
431.209
430.968
430.726
430.484
430.241
429.998
429.757
429.515
429.275
429.035
428.797
428.562
428.328
428.097
427.869
427.643
427.421
427.203
426.988
426.778
426.571
426.367
426.17
425.974
425.785
425.598
425.414
425.232
425.054
424.875
424.701
424.521
424.343
424.16
423.974
423.779
423.581
423.372
423.154
422.931
422.692
422.455
422.205
421.959
421.709
421.465
421.236
421.01
420.818
420.636
420.487
420.348
420.25
420.146
420.096
420.066
420.116
420.254
420.555
421.009
421.689
434.728
434.694
434.629
434.533
434.407
434.255
434.082
433.892
433.69
433.48
433.265
433.047
432.827
432.604
432.378
432.149
431.916
431.68
431.441
431.201
430.959
430.716
430.473
430.228
429.985
429.742
429.499
429.256
429.014
428.774
428.535
428.298
428.062
427.83
427.6
427.372
427.147
426.925
426.708
426.491
426.279
426.07
425.863
425.66
425.459
425.258
425.06
424.862
424.663
424.465
424.261
424.055
423.846
423.627
423.403
423.169
422.925
422.667
422.403
422.123
421.831
421.534
421.219
420.901
420.579
420.251
419.924
419.605
419.289
418.98
418.689
418.41
418.141
417.926
417.729
417.617
417.597
417.696
417.989
418.463
434.693
434.66
434.597
434.504
434.383
434.236
434.067
433.881
433.681
433.472
433.258
433.04
432.82
432.597
432.371
432.141
431.909
431.673
431.433
431.192
430.95
430.705
430.461
430.216
429.97
429.725
429.48
429.235
428.991
428.747
428.506
428.264
428.025
427.788
427.552
427.319
427.088
426.858
426.634
426.408
426.186
425.967
425.748
425.533
425.317
425.1
424.888
424.668
424.452
424.23
424.005
423.771
423.537
423.288
423.031
422.768
422.481
422.193
421.882
421.556
421.215
420.858
420.479
420.086
419.681
419.252
418.816
418.369
417.906
417.438
416.974
416.498
416.044
415.608
415.21
414.868
414.621
414.491
414.524
414.738
434.692
434.659
434.596
434.503
434.382
434.235
434.066
433.879
433.679
433.47
433.256
433.038
432.817
432.593
432.367
432.136
431.903
431.666
431.426
431.184
430.94
430.695
430.449
430.202
429.955
429.708
429.46
429.212
428.966
428.719
428.474
428.228
427.985
427.743
427.501
427.263
427.025
426.788
426.556
426.321
426.091
425.86
425.63
425.404
425.172
424.943
424.712
424.477
424.24
424
423.749
423.495
423.233
422.954
422.674
422.37
422.056
421.722
421.375
420.996
420.608
420.19
419.741
419.279
418.777
418.255
417.696
417.125
416.5
415.87
415.212
414.527
413.842
413.162
412.5
411.887
411.346
410.924
410.651
410.551
434.725
434.691
434.626
434.529
434.403
434.251
434.078
433.887
433.684
433.474
433.257
433.04
432.817
432.593
432.366
432.134
431.9
431.661
431.42
431.176
430.931
430.684
430.436
430.187
429.939
429.689
429.438
429.189
428.938
428.688
428.439
428.189
427.943
427.695
427.448
427.204
426.959
426.716
426.476
426.232
425.993
425.753
425.51
425.274
425.027
424.786
424.539
424.287
424.033
423.772
423.501
423.224
422.94
422.63
422.325
421.989
421.638
421.272
420.876
420.456
420.013
419.537
419.02
418.482
417.896
417.259
416.596
415.875
415.094
414.29
413.415
412.504
411.557
410.593
409.615
408.659
407.785
406.985
406.327
405.881
434.795
434.759
434.688
434.582
434.448
434.286
434.103
433.904
433.695
433.482
433.264
433.045
432.822
432.597
432.368
432.134
431.898
431.657
431.415
431.168
430.922
430.673
430.424
430.173
429.921
429.67
429.416
429.164
428.909
428.656
428.403
428.148
427.898
427.644
427.393
427.143
426.89
426.643
426.392
426.141
425.894
425.642
425.393
425.141
424.885
424.627
424.369
424.098
423.831
423.549
423.258
422.964
422.648
422.326
421.98
421.625
421.234
420.836
420.4
419.93
419.448
418.9
418.327
417.714
417.031
416.299
415.516
414.65
413.709
412.709
411.626
410.433
409.222
407.908
406.568
405.212
403.884
402.638
401.511
400.607
434.905
434.864
434.783
434.664
434.514
434.336
434.139
433.928
433.713
433.495
433.276
433.056
432.831
432.605
432.372
432.138
431.897
431.655
431.41
431.162
430.914
430.662
430.412
430.157
429.905
429.649
429.393
429.137
428.879
428.623
428.365
428.107
427.851
427.592
427.335
427.079
426.82
426.566
426.308
426.047
425.795
425.53
425.273
425.011
424.74
424.476
424.198
423.918
423.63
423.333
423.024
422.709
422.374
422.022
421.663
421.267
420.854
420.422
419.94
419.438
418.901
418.301
417.662
416.982
416.208
415.378
414.486
413.468
412.365
411.174
409.844
408.382
406.844
405.151
403.367
401.538
399.655
397.824
396.091
394.598
435.063
435.011
434.914
434.774
434.6
434.398
434.182
433.957
433.735
433.513
433.292
433.071
432.844
432.617
432.379
432.143
431.898
431.654
431.405
431.156
430.906
430.652
430.401
430.142
429.888
429.628
429.369
429.111
428.848
428.589
428.326
428.063
427.803
427.538
427.277
427.014
426.749
426.489
426.222
425.956
425.692
425.423
425.15
424.883
424.597
424.325
424.033
423.738
423.441
423.12
422.806
422.456
422.12
421.73
421.357
420.937
420.484
420.041
419.503
418.976
418.392
417.728
417.05
416.292
415.426
414.531
413.504
412.363
411.087
409.727
408.106
406.39
404.48
402.353
400.074
397.613
395.105
392.456
389.974
387.653
435.281
435.211
435.085
434.91
434.699
434.464
434.225
433.987
433.759
433.534
433.314
433.09
432.862
432.629
432.389
432.148
431.899
431.654
431.401
431.152
430.898
430.643
430.388
430.127
429.871
429.606
429.347
429.082
428.817
428.553
428.287
428.018
427.755
427.483
427.217
426.949
426.675
426.411
426.135
425.863
425.592
425.31
425.037
424.75
424.468
424.171
423.878
423.568
423.248
422.934
422.578
422.237
421.863
421.463
421.075
420.613
420.162
419.668
419.102
418.555
417.91
417.206
416.487
415.656
414.707
413.754
412.623
411.315
409.955
408.352
406.527
404.479
402.227
399.59
396.718
393.573
390.123
386.581
382.913
379.521
435.58
435.479
435.303
435.07
434.804
434.53
434.267
434.017
433.786
433.56
433.34
433.112
432.88
432.641
432.397
432.152
431.899
431.653
431.395
431.148
430.887
430.635
430.374
430.112
429.852
429.584
429.322
429.052
428.785
428.515
428.246
427.971
427.704
427.426
427.155
426.882
426.6
426.332
426.047
425.768
425.491
425.198
424.919
424.622
424.329
424.026
423.713
423.409
423.057
422.758
422.355
422.03
421.623
421.208
420.824
420.306
419.871
419.326
418.736
418.175
417.468
416.742
415.977
415.074
414.075
413.051
411.826
410.419
408.918
407.161
405.072
402.825
400.107
397.054
393.444
389.426
384.908
379.9
374.902
369.648
435.993
435.828
435.569
435.25
434.916
434.599
434.317
434.062
433.833
433.605
433.381
433.145
432.907
432.659
432.412
432.16
431.908
431.657
431.399
431.148
430.884
430.63
430.364
430.101
429.835
429.566
429.297
429.027
428.753
428.481
428.207
427.925
427.659
427.368
427.098
426.815
426.53
426.253
425.965
425.677
425.393
425.097
424.802
424.506
424.202
423.881
423.587
423.236
422.92
422.566
422.17
421.845
421.398
421.008
420.576
420.058
419.617
419.015
418.446
417.821
417.097
416.346
415.553
414.536
413.575
412.461
411.088
409.711
408.059
406.081
403.909
401.358
398.38
394.795
390.553
385.612
379.451
372.68
365.098
357.679
436.536
436.197
435.763
435.32
434.928
434.601
434.332
434.091
433.867
433.636
433.404
433.159
432.915
432.663
432.415
432.161
431.909
431.656
431.397
431.144
430.878
430.621
430.353
430.087
429.818
429.547
429.273
429.002
428.72
428.447
428.168
427.881
427.611
427.315
427.04
426.752
426.462
426.178
425.887
425.59
425.303
425.002
424.698
424.395
424.089
423.742
423.466
423.076
422.77
422.416
422.014
421.694
421.206
420.845
420.351
419.877
419.378
418.801
418.22
417.563
416.818
416.076
415.209
414.156
413.23
412.014
410.442
409.284
407.207
405.407
402.906
400.287
396.894
393.166
387.924
382.698
373.974
365.228
352.125
340.002
437.997
436.987
436.077
435.404
434.953
434.644
434.398
434.164
433.929
433.684
433.434
433.181
432.928
432.676
432.423
432.171
431.916
431.663
431.403
431.146
430.881
430.618
430.351
430.081
429.811
429.538
429.261
428.989
428.705
428.43
428.146
427.862
427.582
427.293
427.007
426.723
426.426
426.144
425.847
425.551
425.261
424.955
424.654
424.352
424.035
423.715
423.405
423.045
422.723
422.366
421.983
421.621
421.2
420.752
420.331
419.78
419.307
418.729
418.109
417.473
416.762
415.933
415.108
414.071
413.148
411.616
410.625
408.775
407.153
405.076
402.876
399.543
396.883
391.789
387.73
380.306
372.508
360.081
343.041
316.983
428.133
428.371
428.438
428.26
427.877
427.308
426.704
426.091
425.571
425.505
425.616
424.608
422.47
420.483
419.72
420.575
423.124
426.694
429.204
430.429
428.299
428.37
428.358
428.273
427.923
427.282
426.659
426.114
425.438
424.929
424.369
423.023
420.987
419.048
417.993
418.444
420.661
424.463
427.463
429.272
427.32
428.58
428.847
428.628
428.249
427.634
427.081
426.36
425.435
424.279
422.667
420.475
418.064
416.138
414.568
413.936
415.71
419.977
423.491
425.533
429.356
429.247
428.358
428.924
429.025
428.554
427.767
426.778
425.491
423.695
421.253
418.317
415.466
413.327
411.538
410.746
411.914
415.961
419.436
421.326
428.198
428.791
430.626
431.119
429.697
429.034
428.513
427.352
425.403
422.975
420.17
416.975
413.759
411.312
409.266
408.628
409.441
413.065
416.641
418.371
427.292
428.576
429.835
430.227
430.895
431.106
428.971
427.25
425.151
422.543
419.316
415.916
412.475
410.357
407.994
407.647
408.181
411.635
415.734
417.351
425.392
426.592
427.84
428.9
429.627
429.462
428.746
427.321
424.406
421.573
418.587
415.326
412.427
410.31
408.108
407.801
408.999
412.792
416.985
418.193
422.583
423.654
424.837
425.928
426.652
426.889
426.532
425.298
423.193
420.615
417.811
415.15
413.008
411.922
411.525
412.211
414.115
416.393
418.627
419.559
419.131
420.024
420.969
421.933
422.693
423.088
423.029
422.307
420.933
419.111
417.242
415.314
413.656
413.06
411.248
411.472
413.493
416.883
418.048
421.794
415.168
415.769
416.53
417.3
418.035
418.602
418.788
418.662
418.202
417.076
415.591
414.167
414.187
415.789
418.126
420.922
423.811
425.449
424.372
427.333
410.689
411.008
411.513
412.211
412.879
413.608
414.241
414.688
415.081
415.8
417.016
418.433
417.903
415.096
410.117
408.653
412.267
417.974
422.165
427.012
405.647
405.687
405.977
406.539
407.338
408.245
409.342
410.587
411.677
412.499
412.904
413.025
412.332
411.139
411.668
414.377
418.876
427.526
433.491
441.701
399.958
399.652
399.774
400.238
401.177
402.448
404.017
406.015
408.472
410.95
412.812
414.244
415.704
417.621
421.465
427.268
431.548
433.873
433.724
436.232
393.453
392.683
392.611
393.11
394.256
396.069
398.158
400.183
402.408
405.291
408.687
412.445
415.908
418.49
420.847
423.889
426.719
431.457
437.051
440.719
385.801
384.559
384.066
384.64
386.251
388.855
392.518
396.4
399.62
402.368
405.132
408.736
413.047
417.097
421.496
427.152
432.804
437.84
440.506
442.559
376.548
374.669
374.107
374.682
376.782
379.674
382.745
386.815
391.832
397.547
403.423
408.627
413.37
418.146
423.644
429.958
435.057
438.475
441.725
443.726
365.062
361.741
360.794
363.106
367.506
372.594
376.964
380.167
383.758
389.83
397.419
404.578
411.168
417.357
423.812
430.422
435.627
440.033
443.062
444.062
350.845
345.447
343.954
346.603
352.212
358
364.48
371.963
379.584
386.714
393.549
400.528
407.948
414.964
421.611
428.242
434.049
438.747
440.953
441.709
328.442
322.554
325.786
334.863
341.372
343.901
348.223
356.689
368.542
379.165
387.559
395.149
403.171
410.956
417.922
424.51
430.436
434.784
435.997
436.516
287.584
281.183
296.422
313.112
324.683
332.529
338.693
347.453
358.729
370.227
379.984
388.527
397.188
405.645
413.156
419.741
425.356
429.38
429.37
429.678
234.402
252.255
275.453
288.117
293.643
302.233
318.491
334.559
348.438
361.047
371.812
380.914
389.772
398.653
406.586
413.371
418.866
422.554
422.266
422.405
251
253.347
272.263
275.283
272.485
275.063
291.787
315.959
335.88
350.356
362.409
372.603
381.881
390.677
398.569
405.272
410.609
414.4
414.795
414.338
255.083
264.559
269.588
266.11
254.837
251.535
266.092
294.671
320.139
338.226
352.086
363.598
373.625
382.468
390.112
396.635
402.004
405.579
405.925
405.529
259.693
260.859
256.445
245.626
234.44
228.424
238.28
272.555
303.959
325.01
340.434
353.482
364.324
373.462
381.451
388.166
393.096
396.027
396.437
396.483
255.816
254.995
244.808
227.963
210.298
200.224
211.259
249.451
287.739
313.516
330.184
343.893
355.223
364.487
372.303
378.897
383.94
386.994
387.782
387.924
260.102
254.951
241.969
219.191
202.847
189.662
187.93
229.734
274.02
302.695
320.824
335.247
346.627
355.874
363.606
370.136
375.132
378.212
379.562
380.111
258.636
252.818
240.747
224.164
208.324
187.776
179.461
227.017
266.979
296.063
314.608
328.39
339.524
348.783
356.005
361.775
366.603
370.154
371.832
372.58
256.977
252.096
243.475
231.763
217.26
191.236
201.768
237.312
272.104
297.476
312.775
324.367
334.232
342.543
349.133
354.639
359.344
362.656
364.355
365.679
256.079
253.057
247.125
240.18
231.203
221.406
234.528
253.401
286.571
302.5
314.276
322.991
330.713
337.535
343.016
347.552
351.567
355.041
357.59
358.816
254.816
252.717
248.891
247.366
248.452
252.592
265.282
286.331
305.784
312.255
317.978
323.594
328.432
333.136
337.149
340.978
344.875
348.15
350.145
351.491
252.806
250.856
248.623
251.404
260.453
275.81
294.487
317.399
325.289
324.144
324.028
325.616
327.158
329.507
332.498
335.397
338.095
340.627
343.085
344.737
252.105
251.227
248.684
254.409
268.195
289.345
312.284
330.696
336.216
333.389
328.703
326.334
325.758
325.993
327.249
329.068
331.438
333.925
335.91
337.043
253.924
254.12
253.999
258.09
272.344
293.272
316.3
329.993
335.934
335.124
326.646
322.755
320.933
320.371
321.095
322.668
324.396
325.961
327.541
329.077
256.07
257.387
258.96
262.765
273.892
290.397
308.576
320.119
325.596
325.185
319.739
315.318
312.846
312.211
312.549
313.619
315.232
317.28
319.286
320.33
256.107
259.117
260.084
263.451
271.182
282.086
294.753
303.684
308.653
308.483
306.87
302.301
300.496
300.582
301.754
303.71
305.684
307.271
308.693
310.247
253.323
256.413
257.781
259.642
263.749
270.07
277.891
284.485
288.498
288.498
287.862
285.275
284.67
286.078
288.596
291.201
293.466
295.778
298.151
299.47
251.202
252.853
252.283
251.912
252.51
254.852
258.683
262.898
265.531
265.649
265.369
265.293
265.368
267.819
272.384
276.995
280.649
283.377
285.465
287.149
248.353
246.733
243.089
239.528
236.48
235.212
235.769
237.735
238.751
238.931
239.594
241.552
243.012
247.114
254.148
260.596
265.321
269.013
272.301
274.208
241.573
237.601
230.569
222.928
215.85
211.161
209.206
208.883
208.312
208.14
209.784
213.738
217.562
223.708
233.29
242.378
249.297
254.417
257.991
259.989
229.806
223.618
213.314
202.16
191.622
183.914
179.78
176.865
174.501
174.098
176.946
182.602
188.97
198.53
212.133
224.038
232.256
238.31
243.072
245.72
213.793
205.957
192.38
177.66
164.231
154.203
147.381
142.382
138.451
137.557
141.827
149.636
158.678
171.943
189.529
204.624
215.514
223.443
229.002
231.639
193.673
184.611
169.401
152.066
136.353
124.182
115.148
107.128
101.73
100.761
106.292
116.365
128.439
145.874
167.95
186.548
199.457
208.656
215.199
218.906
171.686
161.618
145.012
126.746
109.815
95.7942
84.2198
73.4548
66.591
65.8203
73.0799
85.5311
100.729
122.307
148.199
169.443
184.55
195.977
204.252
207.985
149.793
140.103
122.833
103.84
86.3599
71.167
56.8366
44.0853
36.48
36.2555
45.1495
59.3826
77.5032
103.447
132.663
156.112
173.174
185.719
194.479
199.113
130.521
120.584
104.285
85.5741
67.9578
51.7689
35.8022
21.5187
14.1092
15.1687
25.3769
40.8261
61.402
90.0192
120.698
146.044
165.094
179.082
189.074
193.56
115.715
106.749
91.0187
73.5006
56.2668
39.5278
22.6062
8.19766
1.46126
3.48859
14.4296
31.173
53.522
83.5628
114.583
141.395
161.858
176.313
185.924
191.257
106.976
98.6993
84.26
68.0751
52.1884
35.8657
18.6453
4.71456
-1.36018
1.51038
12.9113
30.8323
55.2452
85.8132
116.407
142.48
161.776
176.152
187.122
192.689
104.825
97.511
84.89
70.2095
56.2846
41.2832
24.2404
10.3974
5.54248
9.08941
20.5505
38.9515
64.4625
95.1666
124.561
148.405
166.232
180.271
190.764
196.41
109.184
103.253
91.9485
80.0335
67.8688
54.2939
38.3506
26.2706
21.7348
25.4892
37.045
55.5229
81.0569
110.296
136.933
157.396
173.246
186.437
197.067
202.626
119.144
114.063
105.27
96.0341
86.7748
75.6093
62.6365
51.0147
46.8347
50.4439
61.4241
79.0084
102.756
128.318
150.412
167.553
182.307
194.935
204.784
209.85
133.077
129.71
123.826
117.171
110.361
102.098
91.53
81.8512
78.3768
81.8184
91.9345
107.75
128.019
148.61
165.857
180.07
192.564
203.088
211.996
217.09
150.025
147.835
144.413
140.829
137.05
131.733
123.948
116.641
113.566
116.335
124.91
137.819
153.566
168.912
181.464
192.4
202.125
211.27
219.794
223.994
168.747
167.791
166.374
165.131
164.038
161.575
156.512
151.262
148.696
150.316
156.534
165.859
176.721
187.1
196.371
204.894
212.181
219.198
225.463
229.283
187.08
187.388
187.861
188.643
189.526
189.132
186.491
182.686
180.312
180.696
184.262
189.817
196.549
203.265
209.988
215.723
220.268
225.542
231.309
234.22
204.528
205.288
206.961
209.429
211.967
213.035
211.761
209.043
206.512
205.412
206.549
209.217
212.745
216.419
220.799
224.985
228.754
232.285
235.231
237.588
220.593
221.753
224.001
227.039
230.066
231.889
231.641
229.395
226.649
224.566
223.933
224.553
225.983
228.258
231.34
234.018
235.973
237.603
239.509
241.226
234.578
235.761
238.112
241.251
244.466
246.513
246.57
244.41
241.497
238.85
237.075
236.715
237.078
238.059
239.348
240.851
242.521
243.549
244.404
245.33
246.471
247.638
249.735
252.413
255.185
257.205
257.253
255.305
252.366
249.52
247.255
246.271
245.775
246.202
247.047
248.148
249.325
249.855
249.41
249.947
256.433
257.332
258.909
260.899
263.012
264.438
264.542
262.956
260.29
257.627
255.312
254.216
253.722
253.81
253.879
254.049
254.215
254.438
255.755
255.991
264.98
265.355
266.148
267.267
268.584
269.705
269.761
268.534
266.29
264.051
262.12
260.94
260.065
259.678
259.284
259.239
259.973
260.71
260.897
261.161
272.453
272.42
272.346
272.592
272.892
273.685
273.774
272.892
271.059
269.219
267.567
266.361
265.655
265.421
265.297
265.01
264.326
264.176
266.131
266.822
279.221
278.774
277.97
277.407
277.044
277.07
277.086
276.548
275.215
273.774
272.575
271.62
270.99
270.533
269.907
269.131
267.931
266.12
267.523
269.351
285.828
284.95
283.387
281.68
280.815
280.583
280.693
280.324
279.229
278.036
277.042
276.001
275.142
274.412
273.882
273.302
272.716
270.537
262.993
263.915
292.599
291.337
289.233
287.245
285.406
284.679
284.656
284.328
283.362
282.196
281.2
280.234
279.599
278.959
278.446
277.927
276.244
271.245
260.174
264.897
299.654
298.317
295.888
293.484
291.324
289.828
289.367
288.821
287.749
286.586
285.549
284.548
283.834
283.136
281.968
280.065
279.558
280.173
267.622
276.684
307.042
305.695
303.237
300.303
297.676
295.736
294.748
293.77
292.417
290.909
289.53
288.224
287.228
286.677
286.103
284.953
284.047
292.047
286.459
283.386
314.464
313.082
310.744
307.886
304.746
302.13
300.526
299.031
297.117
295.123
293.259
291.803
290.942
290.87
291.849
293.121
291.843
291.757
296.081
288.883
321.849
320.618
318.257
315.62
312.428
309.2
306.635
304.369
301.849
299.229
296.897
295.212
294.507
294.806
295.55
296.551
297.624
294.362
295.35
294.522
329.486
328.381
326.407
323.623
320.269
316.476
312.961
309.659
306.354
303.144
300.028
297.686
296.803
297.322
298.275
298.999
298.779
302.444
297.263
298.22
336.676
335.676
333.947
331.464
327.962
323.665
319.07
314.575
310.424
306.417
302.563
299.277
297.553
298.282
300.592
303.35
303.998
304.377
301.621
300.032
343.038
342.423
340.916
338.661
335.23
330.37
324.832
319.146
313.87
308.992
304.267
299.991
297.371
297.593
300.206
303.683
307.112
302.966
303.329
299.51
348.806
348.304
347.195
345.12
341.682
336.48
330.053
323.166
316.667
310.674
305.023
299.476
294.91
293.327
295.47
299.32
301.489
300.487
300.576
297.281
353.819
353.45
352.506
350.675
347.326
341.754
334.558
326.646
318.892
311.439
304.413
297.145
290.043
285.542
285.968
288.545
289.023
291.736
292.565
292.129
357.819
357.743
357.058
355.419
352.04
346.268
338.472
329.591
320.487
311.451
302.722
293.263
282.519
273.219
268.584
267.038
268.067
273.643
277.627
281.129
361.035
361.012
360.582
359.231
356.022
350.128
341.716
331.843
321.694
310.972
299.917
287.444
271.912
255.675
244.186
238.64
237.832
244.331
254.658
260.454
363.518
363.661
363.301
362.216
359.053
353.183
344.557
333.818
322.554
310.113
296.627
281.022
260.229
236.431
216.505
203.984
201.48
212.344
223.483
232.921
365.206
365.545
365.217
364.33
361.282
355.654
347.037
335.502
323.339
309.981
293.909
274.911
249.963
218.867
190.638
173.756
168.619
175.738
194.844
208.301
366.23
366.766
366.255
365.698
362.837
357.428
348.944
337.587
324.718
310.18
292.731
270.744
242.49
207.18
174.078
153.344
149.087
161.849
182.171
192.251
366.65
367.362
366.68
366.34
363.514
358.838
350.533
339.27
326.534
311.974
293.575
270.262
241.052
205.328
170.748
149.161
142.501
153.771
166.066
181.086
366.489
367.146
366.65
366.265
364.046
359.638
351.66
341.26
328.54
314.171
296.527
274.624
247.689
215.229
182.628
159.536
149.694
155.463
176.976
195.062
366.117
366.453
366.343
365.865
364.006
360.107
352.833
343.323
330.7
317.342
301.67
282.392
260.013
233.144
205.722
186.538
182.369
194.146
211.431
223.002
365.892
365.981
366.187
365.346
363.782
360.067
353.769
345.436
333.831
320.871
307.633
291.625
273.712
253.558
233.277
218.483
215.983
226.25
240.14
247.599
365.68
365.653
366.186
364.828
363.044
359.96
354.887
347.062
337.028
325.238
313.367
300.467
285.925
271.002
257.617
248.492
247.063
255.801
264.6
270.615
365.021
364.881
365.979
363.904
362.332
359.753
355.312
348.561
339.971
329.499
318.316
307.497
296.102
284.621
275.62
270.805
271.259
278.072
286.38
293.36
363.871
363.827
364.265
362.789
361.48
359.204
355.763
349.832
342.212
333.214
323.028
313.229
303.501
294.734
287.507
284.207
286.358
293.826
304.028
316.766
362.911
362.876
362.39
361.686
360.809
358.766
355.526
350.754
344.412
336.413
327.175
318.1
309.358
301.222
294.95
290.992
291.768
297.897
306.395
306.225
362.123
362.184
361.027
361.73
360.291
358.015
355.599
351.634
346.12
339.199
330.982
322.212
313.706
305.497
298.069
293.06
290.452
291.698
293.255
298.554
361.519
361.391
360.643
361.377
359.609
358.085
355.618
352.309
347.853
341.656
334.173
325.792
317.041
308.292
299.717
290.964
284.259
279.063
274.329
270.647
361.001
360.822
360.504
360.421
359.484
358.194
356.179
353.254
349.068
343.904
337.254
329.063
320.116
310.313
299.819
288.223
274.869
260.385
241.075
226.479
360.476
360.333
360.382
359.572
359.878
358.689
356.628
353.819
350.63
346.015
340.085
332.542
323.387
313.036
300.189
284.629
266.07
241.45
207.233
142.806
359.985
359.965
360.219
359.832
360.044
358.662
357.075
354.903
351.918
348.188
343.093
336.034
326.857
315.671
301.658
283.206
257.369
220.963
174.692
34.8061
359.611
359.62
359.926
359.876
359.331
358.991
357.611
355.562
353.542
350.452
345.961
340.228
331.545
319.976
304.067
283.465
259.823
204.244
154.799
51.73
359.77
359.248
359.064
359.06
358.625
358.477
357.42
356.644
355.151
352.888
349.484
344.431
336.501
325.48
311.738
282.686
268.006
210.167
153.459
93.321
359.302
358.004
356.994
356.522
356.714
356.862
357.362
357.335
357.285
355.739
353.16
349.8
344.727
328.009
324.726
287.463
267.831
226.679
167.747
129.014
357.616
355.823
353.934
353.352
354.125
355.597
356.947
358.255
359.79
357.538
359.325
350.417
357.169
329.982
324.481
295.298
263.516
244.255
202.303
165.581
356.413
354.164
351.966
351.287
352.149
354.238
357.163
358.241
363.711
356.675
367.287
350.282
357.339
332.896
316.939
307.755
279.974
267.058
235.77
198.613
357.315
354.545
351.746
350.883
351.826
354.312
358.037
361.111
366.247
355.161
364.165
349.415
347.6
340.801
327.718
327.215
304.67
285.866
256.702
220.651
360.183
357.178
354.083
352.691
353.128
355.542
358.24
364.171
354.178
359.397
358.407
355.266
354.28
357.094
347.254
340.381
320.659
297.99
269.356
235.121
363.647
360.409
357.271
355.89
356.483
359.265
358.378
366.119
350.724
372.164
355.134
372.269
370.01
373.142
355.25
343.608
326.398
303.853
277.074
245.209
367.594
363.607
359.535
357.779
358.367
361.007
362.296
368.121
360.968
379.588
367.041
398.299
382.624
377.814
359.522
345.118
327.309
305.305
280.325
249.916
-159.397
-108.545
-152.514
-149.731
-175.896
-136.144
-144.174
-162.919
-180.913
-191.269
-193.959
-188.223
-172.266
-151.137
-127.361
-94.47
-59.0069
-25.465
8.44535
35.8404
54.1079
62.1303
62.3785
57.9847
51.8719
43.8701
36.0836
28.3588
20.7614
13.0772
4.71363
-5.24001
-17.9864
-35.2212
-56.611
-81.7285
-109.425
-138.6
-168.154
-196.648
-222.111
-242.744
-256.779
-262.343
-258.716
-247.379
-228.571
-203.138
-173.7
-142.017
-110.255
-80.6737
-54.7579
-33.3273
-16.5724
-4.57369
3.72654
8.82751
11.6567
12.8024
12.9147
12.5332
11.867
11.4288
11.3202
11.6225
12.152
12.7733
13.1977
13.3657
13.1493
12.6935
12.298
12.0578
11.8085
11.2062
9.8793
7.54599
4.33586
1.04035
-85.1326
-120.849
-123.11
-183.448
-194.199