/*--------------------------------*- C++ -*----------------------------------*\
| =========                 |                                                 |
| \\      /  F ield         | OpenFOAM: The Open Source CFD Toolbox           |
|  \\    /   O peration     | Version:  2306                                  |
|   \\  /    A nd           | Website:  www.openfoam.com                      |
|    \\/     M anipulation  |                                                 |
\*---------------------------------------------------------------------------*/
FoamFile
{
    version     2.0;
    format      ascii;
    arch        "LSB;label=32;scalar=64";
    class       surfaceScalarField;
    location    "0.175";
    object      phi;
}
// * * * * * * * * * * * * * * * * * * * * * * * * * * * * * * * * * * * * * //

dimensions      [0 3 -1 0 0 0 0];

oriented        oriented;

internalField   nonuniform List<scalar> 
8520
(
0.00992785
7.21472e-05
0.00978962
0.000138234
0.00962952
0.000160102
0.00946827
0.000161246
0.00930944
0.000158832
0.00914917
0.00016027
0.00898636
0.000162806
0.00882097
0.000165395
0.00865369
0.000167281
0.00848564
0.000168044
0.00831788
0.000167761
0.0081511
0.000166781
0.00798557
0.000165534
0.00782137
0.000164197
0.00765855
0.000162817
0.00749714
0.000161409
0.00733725
0.000159893
0.00717894
0.00015831
0.00702228
0.000156655
0.00686747
0.000154816
0.00671445
0.000153013
0.00656347
0.00015098
0.00641441
0.000149064
0.00626751
0.000146898
0.00612269
0.000144818
0.00598005
0.000142643
0.00583963
0.000140426
0.00570136
0.000138263
0.00556547
0.000135892
0.00543164
0.000133833
0.00530025
0.000131387
0.00517087
0.000129384
0.00504378
0.000127083
0.0049186
0.000125179
0.0047954
0.0001232
0.00467399
0.000121409
0.00455416
0.000119836
0.00443579
0.000118373
0.00431843
0.000117353
0.00420202
0.000116414
0.00408596
0.000116063
0.00397012
0.000115836
0.00385378
0.000116339
0.00373674
0.000117038
0.00361816
0.000118585
0.00349764
0.000120516
0.00337431
0.00012333
0.00324742
0.000126893
0.00311619
0.000131229
0.00297948
0.000136712
0.00283657
0.00014291
0.002686
0.000150564
0.00252703
0.000158968
0.00235808
0.000168958
0.00217833
0.000179747
0.00198622
0.00019211
0.00178112
0.000205101
0.00156163
0.000219484
0.00132777
0.000233869
0.0010787
0.00024907
0.000815744
0.000262951
0.000539421
0.000276323
0.000253079
0.000286342
-3.85688e-05
0.000291648
-0.000316322
0.000277753
-0.000553289
0.000236967
-0.000709505
0.000156217
-0.000766735
5.72293e-05
-0.000704162
-6.2573e-05
-0.000511922
-0.000192239
-0.000193555
-0.000318367
0.000147913
-0.000341468
0.000391972
-0.000244059
0.000333122
5.88498e-05
-0.000171111
0.000504233
-0.000475347
0.000304237
-0.00013519
-0.000340158
0.00014734
-0.000282529
0.000136491
1.08491e-05
4.01691e-06
0.000132474
0.0100357
3.64286e-05
0.0100798
9.41238e-05
0.0101108
0.000129103
0.0101272
0.000144864
0.0101358
0.000150285
0.0101431
0.000152941
0.0101493
0.000156566
0.0101532
0.000161533
0.0101536
0.000166839
0.0101502
0.000171449
0.010143
0.000175005
0.0101324
0.000177375
0.0101188
0.000179089
0.0101028
0.000180246
0.0100844
0.000181216
0.0100638
0.000182038
0.0100409
0.000182701
0.010016
0.000183294
0.0099889
0.000183724
0.00995981
0.0001839
0.00992869
0.000184135
0.00989577
0.000183899
0.00986088
0.000183959
0.00982436
0.000183416
0.00978593
0.000183242
0.00974597
0.000182603
0.00970423
0.000182168
0.00966093
0.000181563
0.00961604
0.000180782
0.00956946
0.000180415
0.00952145
0.000179402
0.00947158
0.000179247
0.00942038
0.000178283
0.00936725
0.00017831
0.00931262
0.000177827
0.00925606
0.000177977
0.00919769
0.000178201
0.00913733
0.000178734
0.00907474
0.000179946
0.00901003
0.000181127
0.00894241
0.000183682
0.00887248
0.000185764
0.00879875
0.000190071
0.00872253
0.00019326
0.00864131
0.0001998
0.00855722
0.00020461
0.00846681
0.000213736
0.00837263
0.000221072
0.00827083
0.000233028
0.00816376
0.000243786
0.00804772
0.000258949
0.00792433
0.000273955
0.00779037
0.000292927
0.00764649
0.000312841
0.00749017
0.000336065
0.00732088
0.000361402
0.00713701
0.000388966
0.00693675
0.00041974
0.00671964
0.00045098
0.00648265
0.000486066
0.00622682
0.000518777
0.00594874
0.000554407
0.00565241
0.000582674
0.00533641
0.000607647
0.00500532
0.00060884
0.00464553
0.00059676
0.0042349
0.000566841
0.00375532
0.000536814
0.00319176
0.000500982
0.00249911
0.000500409
0.00163026
0.000550485
0.000641571
0.000647222
-0.000235153
0.000632664
-0.000641241
0.000464937
-0.000556683
0.000419675
-0.000360145
0.000107698
-0.000483764
-0.000216539
-0.000532044
-0.000234249
-0.000364874
-0.000156321
-0.000279087
-8.17704e-05
0.0100142
2.22481e-05
0.010044
6.42723e-05
0.0100778
9.53525e-05
0.0101073
0.000115333
0.0101313
0.000126258
0.0101522
0.000132104
0.010173
0.00013575
0.010195
0.000139545
0.0102179
0.000143942
0.0102408
0.000148533
0.010263
0.000152752
0.0102843
0.000156167
0.0103044
0.000158926
0.0103237
0.00016099
0.0103423
0.000162629
0.0103602
0.000164128
0.0103775
0.000165325
0.0103942
0.000166654
0.0104102
0.000167725
0.0104254
0.000168694
0.0104397
0.000169838
0.0104533
0.000170305
0.0104657
0.000171548
0.0104775
0.000171585
0.0104879
0.000172839
0.0104977
0.000172786
0.0105061
0.000173802
0.0105136
0.000174034
0.0105199
0.000174567
0.0105248
0.000175453
0.0105287
0.000175511
0.0105309
0.000177053
0.0105322
0.000177013
0.0105314
0.000179034
0.0105298
0.000179515
0.0105259
0.000181818
0.0105209
0.000183247
0.0105136
0.000186015
0.0105048
0.00018877
0.0104936
0.000192312
0.0104806
0.000196702
0.010465
0.000201316
0.0104472
0.000207864
0.0104266
0.0002139
0.0104032
0.000223183
0.0103767
0.000231105
0.0103466
0.000243788
0.0103133
0.000254418
0.0102753
0.000271032
0.0102337
0.000285401
0.0101863
0.000306361
0.0101345
0.000325721
0.0100758
0.000351619
0.0100117
0.000376944
0.00993919
0.000408586
0.00986026
0.000440333
0.00977063
0.000478587
0.00967387
0.000516506
0.00956333
0.000561523
0.00944509
0.000604304
0.00930988
0.000653984
0.00916632
0.00069797
0.00900265
0.000746342
0.00882753
0.00078277
0.00861748
0.000818882
0.00837355
0.000840695
0.00806663
0.000873765
0.00771391
0.000889529
0.00728645
0.000928439
0.00682025
0.000966608
0.00631399
0.00105674
0.00583059
0.00113063
0.0052237
0.00123955
0.00448611
0.00120253
0.0037071
0.00119868
0.00271746
0.00109734
0.00136693
0.00113399
0.000195475
0.000937205
-0.000367833
0.000406987
3.18205e-05
-0.00067874
0.0100069
1.53144e-05
0.0100267
4.44596e-05
0.0100519
7.02419e-05
0.0100769
9.02606e-05
0.0101003
0.000102887
0.0101222
0.000110194
0.0101431
0.000114856
0.0101642
0.000118473
0.0101863
0.000121784
0.0102095
0.000125402
0.0102332
0.000129059
0.0102569
0.000132418
0.0102805
0.000135346
0.0103038
0.00013765
0.010327
0.000139485
0.01035
0.000141065
0.010373
0.000142313
0.010396
0.000143656
0.010419
0.000144741
0.0104419
0.000145825
0.0104646
0.00014713
0.0104872
0.000147708
0.0105094
0.000149393
0.0105316
0.000149374
0.010553
0.000151457
0.0105746
0.000151178
0.0105951
0.000153237
0.0106158
0.000153345
0.0106355
0.000154905
0.0106549
0.000156018
0.0106735
0.000156891
0.0106915
0.000159067
0.0107088
0.000159768
0.0107252
0.000162626
0.0107407
0.000163958
0.0107554
0.000167182
0.010769
0.000169602
0.0107814
0.000173594
0.0107931
0.000177105
0.0108029
0.000182529
0.0108124
0.000187224
0.0108193
0.000194361
0.0108261
0.000201102
0.01083
0.000209934
0.0108337
0.000219559
0.0108342
0.000230601
0.0108343
0.000243606
0.010831
0.000257765
0.010827
0.000275027
0.0108199
0.000292535
0.0108106
0.000315633
0.0107995
0.000336816
0.0107843
0.000366841
0.0107684
0.000392824
0.0107467
0.000430249
0.0107251
0.000461984
0.0106961
0.000507553
0.0106676
0.000544994
0.0106301
0.000599033
0.0105933
0.000641126
0.0105452
0.000702051
0.0104963
0.000746856
0.0104321
0.0008106
0.0103588
0.000856015
0.0102566
0.000921093
0.0101307
0.000966642
0.00996744
0.00103701
0.00977537
0.0010816
0.00953463
0.00116919
0.00927344
0.00122779
0.00897932
0.00135086
0.00868371
0.00142624
0.00831874
0.00160452
0.00785531
0.00166596
0.00729287
0.00176112
0.00664379
0.00174642
0.00606696
0.00171082
0.00529306
0.00171111
0.00414037
0.00155968
0.00155079
0.00262139
0.0100043
1.0999e-05
0.0100166
3.21694e-05
0.010035
5.18717e-05
0.0100563
6.89592e-05
0.010078
8.11497e-05
0.0100989
8.93224e-05
0.0101193
9.44816e-05
0.0101397
9.80773e-05
0.0101607
0.000100768
0.0101825
0.000103548
0.0102051
0.000106504
0.0102281
0.000109381
0.0102514
0.000112034
0.0102748
0.000114312
0.0102981
0.000116142
0.0103214
0.000117804
0.0103447
0.000118941
0.0103681
0.000120343
0.0103916
0.000121177
0.010415
0.000122446
0.0104386
0.000123504
0.010462
0.000124314
0.0104854
0.000125973
0.0105088
0.000126025
0.0105317
0.00012852
0.010555
0.000127948
0.0105773
0.000130921
0.0106002
0.000130417
0.0106218
0.000133308
0.0106441
0.000133684
0.010665
0.000135995
0.0106864
0.000137671
0.0107066
0.00013962
0.0107268
0.000142442
0.010746
0.000144742
0.0107649
0.000148218
0.0107827
0.000151792
0.0108005
0.000155796
0.0108167
0.000160996
0.0108331
0.000166059
0.0108476
0.000172751
0.0108622
0.000179721
0.0108751
0.000188258
0.0108878
0.000197194
0.0108986
0.000208741
0.0109096
0.000219636
0.0109182
0.000234963
0.010927
0.000248988
0.010934
0.000268053
0.0109402
0.000286342
0.0109454
0.000310395
0.0109495
0.000332715
0.0109526
0.000363726
0.0109549
0.000390563
0.0109564
0.000428737
0.0109564
0.000462025
0.0109571
0.000506873
0.0109543
0.000547724
0.0109546
0.000598794
0.0109482
0.000647465
0.0109466
0.000703691
0.0109338
0.000759646
0.010923
0.000821377
0.0108946
0.000884418
0.0108628
0.000952942
0.0108069
0.00102249
0.0107446
0.00109937
0.0106486
0.00117758
0.0105429
0.00127484
0.0104052
0.00136556
0.0102601
0.00149592
0.0100708
0.0016155
0.00989399
0.00178137
0.00964967
0.00191028
0.00937392
0.00203687
0.00899245
0.00212789
0.00853043
0.00217284
0.00793189
0.00230965
0.0071846
0.00230697
0.00226794
0.00646745
0.010003
7.97234e-06
0.0100118
2.33715e-05
0.0100255
3.81496e-05
0.0100432
5.13512e-05
0.0100625
6.18364e-05
0.0100824
6.93562e-05
0.0101024
7.45085e-05
0.0101224
7.80357e-05
0.0101428
8.04552e-05
0.0101636
8.26656e-05
0.0101854
8.47276e-05
0.0102077
8.71314e-05
0.0102305
8.92468e-05
0.0102534
9.13862e-05
0.0102765
9.30259e-05
0.0102996
9.4676e-05
0.0103228
9.57511e-05
0.0103461
9.7086e-05
0.0103694
9.78174e-05
0.0103928
9.91243e-05
0.0104163
9.99653e-05
0.0104396
0.000101024
0.0104631
0.000102427
0.0104863
0.000102861
0.0105096
0.000105227
0.0105326
0.000104913
0.0105554
0.000108114
0.0105783
0.000107573
0.0106004
0.0001112
0.0106229
0.00011112
0.0106442
0.000114707
0.0106663
0.000115589
0.0106867
0.000119226
0.0107081
0.000121102
0.0107275
0.000125249
0.0107479
0.00012785
0.0107664
0.000133348
0.0107857
0.000136488
0.0108029
0.000143778
0.0108211
0.000147828
0.010837
0.00015685
0.0108538
0.000162885
0.0108687
0.000173443
0.0108838
0.000182098
0.0108976
0.000194897
0.0109111
0.000206172
0.0109236
0.000222424
0.0109358
0.000236796
0.0109472
0.000256667
0.0109579
0.000275648
0.0109688
0.000299483
0.010978
0.000323464
0.0109885
0.00035324
0.0109973
0.000381818
0.0110075
0.000418509
0.011016
0.000453542
0.0110269
0.00049595
0.0110353
0.000539329
0.0110467
0.000587415
0.0110552
0.000638968
0.011065
0.000693824
0.0110711
0.000753548
0.0110749
0.00081759
0.0110743
0.000885028
0.011067
0.00096025
0.0110533
0.00103622
0.0110295
0.00112315
0.0109907
0.00121635
0.0109477
0.00131783
0.0108772
0.0014361
0.0108115
0.00156164
0.0107135
0.00171343
0.0106353
0.00185958
0.0105079
0.00203767
0.0103703
0.0021745
0.0101387
0.00235949
0.00984376
0.00246779
0.00950102
0.00265239
0.00908048
0.00272751
0.0028211
0.00852732
0.0100024
5.57795e-06
0.0100093
1.64798e-05
0.0100204
2.70401e-05
0.0100352
3.65001e-05
0.0100524
4.46761e-05
0.010071
5.07203e-05
0.0100903
5.52064e-05
0.0101101
5.8284e-05
0.0101301
6.04189e-05
0.0101506
6.21715e-05
0.0101717
6.36069e-05
0.0101935
6.53556e-05
0.0102157
6.7058e-05
0.0102384
6.87204e-05
0.0102611
7.0316e-05
0.0102842
7.15411e-05
0.0103071
7.28353e-05
0.0103305
7.37241e-05
0.0103536
7.47489e-05
0.010377
7.56828e-05
0.0104003
7.67048e-05
0.0104237
7.7623e-05
0.010447
7.90639e-05
0.0104702
7.96534e-05
0.0104935
8.19241e-05
0.0105165
8.19267e-05
0.0105395
8.51364e-05
0.0105623
8.47873e-05
0.0105846
8.88712e-05
0.0106073
8.84413e-05
0.0106287
9.32932e-05
0.0106512
9.31237e-05
0.0106716
9.87633e-05
0.0106936
9.91835e-05
0.0107132
0.00010557
0.0107342
0.000106858
0.0107531
0.000114458
0.0107731
0.000116488
0.010791
0.000125871
0.0108101
0.000128763
0.0108269
0.000140047
0.0108449
0.000144907
0.0108607
0.00015761
0.0108775
0.000165287
0.0108923
0.000180087
0.0109083
0.000190236
0.0109217
0.000208963
0.0109373
0.000221178
0.0109494
0.000244623
0.0109649
0.000260185
0.0109761
0.000288196
0.0109912
0.000308358
0.0110025
0.000342014
0.0110179
0.000366402
0.0110288
0.000407578
0.0110459
0.00043649
0.0110564
0.000485449
0.0110756
0.000520138
0.0110855
0.000577493
0.0111064
0.000618063
0.0111146
0.000685626
0.0111348
0.000733368
0.0111402
0.000812191
0.0111568
0.000868354
0.0111568
0.000960331
0.0111655
0.00102745
0.0111556
0.00113303
0.0111494
0.00122257
0.0111288
0.00133843
0.0111013
0.00146362
0.0110701
0.00159287
0.0110275
0.00175601
0.0109828
0.00190425
0.0109221
0.00209838
0.0108311
0.0022655
0.0107182
0.00247244
0.0105373
0.00264866
0.010351
0.00283867
0.0100513
0.00302721
0.00320074
0.00967168
0.0100021
3.52719e-06
0.0100079
1.06507e-05
0.0100175
1.74052e-05
0.0100305
2.35173e-05
0.010046
2.9133e-05
0.0100635
3.32668e-05
0.010082
3.66603e-05
0.0101015
3.88194e-05
0.0101213
4.05769e-05
0.0101417
4.17966e-05
0.0101625
4.2798e-05
0.0101838
4.40391e-05
0.0102058
4.51278e-05
0.010228
4.64849e-05
0.0102506
4.76819e-05
0.0102735
4.86571e-05
0.0102965
4.98869e-05
0.0103198
5.04225e-05
0.0103428
5.17422e-05
0.0103663
5.21416e-05
0.0103894
5.36512e-05
0.010413
5.39781e-05
0.0104361
5.60103e-05
0.0104597
5.60725e-05
0.0104827
5.89162e-05
0.010506
5.85712e-05
0.0105289
6.22504e-05
0.0105518
6.18735e-05
0.0105746
6.61368e-05
0.0105969
6.61011e-05
0.0106193
7.08655e-05
0.0106411
7.13947e-05
0.0106629
7.68777e-05
0.0106841
7.80372e-05
0.0107052
8.44167e-05
0.0107257
8.63793e-05
0.010746
9.41672e-05
0.0107659
9.6583e-05
0.010785
0.00010679
0.0108046
0.000109125
0.0108222
0.000122522
0.0108415
0.000125518
0.0108579
0.000141264
0.0108765
0.000146696
0.0108922
0.000164324
0.0109099
0.000172557
0.0109249
0.000193958
0.0109425
0.000203631
0.0109564
0.000230703
0.0109743
0.000242302
0.0109875
0.000274968
0.0110059
0.000289964
0.011019
0.000328931
0.0110383
0.000347085
0.0110518
0.000394125
0.0110721
0.00041613
0.011087
0.000470611
0.0111076
0.000499517
0.0111247
0.000560408
0.0111445
0.000598259
0.0111632
0.00066685
0.0111813
0.000715354
0.0112011
0.000792362
0.0112156
0.000853833
0.0112333
0.000942642
0.0112438
0.00101698
0.0112523
0.00112446
0.0112586
0.00121628
0.0112539
0.00134319
0.0112534
0.00146414
0.011236
0.00161021
0.011226
0.00176605
0.011193
0.00193725
0.0111673
0.0021241
0.0111045
0.00232829
0.0110471
0.00252984
0.0109308
0.00276492
0.0108016
0.00296787
0.0106035
0.00322533
0.0034574
0.0103468
0.0100018
1.71754e-06
0.0100071
5.33655e-06
0.0100159
8.60699e-06
0.0100278
1.16853e-05
0.0100423
1.45756e-05
0.0100589
1.66868e-05
0.0100769
1.86126e-05
0.0100961
1.97059e-05
0.0101158
2.08033e-05
0.0101361
2.1538e-05
0.0101568
2.20576e-05
0.0101779
2.29738e-05
0.0101996
2.33814e-05
0.0102216
2.45213e-05
0.0102442
2.51072e-05
0.0102669
2.59383e-05
0.0102899
2.68698e-05
0.0103131
2.72165e-05
0.0103363
2.86001e-05
0.0103597
2.86848e-05
0.0103829
3.04204e-05
0.0104064
3.0476e-05
0.0104298
3.26753e-05
0.0104532
3.26867e-05
0.0104766
3.54836e-05
0.0104997
3.54577e-05
0.0105231
3.88429e-05
0.0105459
3.91337e-05
0.0105691
4.28963e-05
0.0105915
4.37492e-05
0.0106143
4.80337e-05
0.0106363
4.94262e-05
0.0106585
5.46061e-05
0.01068
5.65421e-05
0.0107017
6.27395e-05
0.0107225
6.55515e-05
0.0107436
7.30788e-05
0.0107638
7.6376e-05
0.0107841
8.65447e-05
0.010804
8.92394e-05
0.0108229
0.000103531
0.0108428
0.000105628
0.0108606
0.000123469
0.0108802
0.000127162
0.0108976
0.00014685
0.010916
0.000154165
0.010934
0.000176037
0.0109514
0.00018615
0.0109695
0.000212672
0.010987
0.000224771
0.0110052
0.000256736
0.0110227
0.000272443
0.0110424
0.000309247
0.0110599
0.000329642
0.0110813
0.000372712
0.0110997
0.000397728
0.0111225
0.000447802
0.0111423
0.000479691
0.0111667
0.000536064
0.0111874
0.000577542
0.0112133
0.000640888
0.0112343
0.000694352
0.0112616
0.000765119
0.0112812
0.000834174
0.0113083
0.000915635
0.0113254
0.00099988
0.0113477
0.00110214
0.0113627
0.00120126
0.0113762
0.00132971
0.0113876
0.00145268
0.0113895
0.00160834
0.011393
0.00176251
0.0113808
0.00194952
0.0113654
0.00213944
0.0113372
0.0023565
0.0112845
0.00258258
0.0112251
0.00282434
0.0111091
0.00308385
0.0109777
0.00335669
0.00363839
0.0107967
0.0100017
1.14442e-09
0.0100068
2.82532e-07
0.0100152
1.403e-07
0.0100265
4.2559e-07
0.0100406
4.63148e-07
0.0100567
5.49367e-07
0.0100745
8.46956e-07
0.0100935
6.90777e-07
0.0101131
1.21708e-06
0.0101335
1.12934e-06
0.0101541
1.52591e-06
0.0101752
1.78456e-06
0.0101967
1.8813e-06
0.0102187
2.55826e-06
0.0102412
2.59264e-06
0.0102639
3.30478e-06
0.010287
3.69384e-06
0.0103101
4.18999e-06
0.0103335
5.1323e-06
0.0103568
5.45641e-06
0.0103804
6.81472e-06
0.0104037
7.16496e-06
0.0104273
9.03272e-06
0.0104507
9.26229e-06
0.0104742
1.19893e-05
0.0104978
1.19114e-05
0.0105209
1.57051e-05
0.0105445
1.55397e-05
0.0105672
2.01805e-05
0.0105907
2.02696e-05
0.0106129
2.58041e-05
0.0106362
2.61731e-05
0.0106579
3.29045e-05
0.0106807
3.37303e-05
0.0107021
4.13244e-05
0.0107239
4.37441e-05
0.0107456
5.1406e-05
0.010766
5.59906e-05
0.0107879
6.46566e-05
0.0108073
6.97737e-05
0.0108286
8.22433e-05
0.0108481
8.61621e-05
0.0108683
0.000103277
0.010888
0.000107475
0.0109074
0.000127411
0.0109269
0.000134651
0.0109465
0.000156457
0.0109654
0.000167227
0.010986
0.000192133
0.0110043
0.000206453
0.0110262
0.000234776
0.0110445
0.000254229
0.0110681
0.00028564
0.011087
0.000310678
0.0111121
0.000347684
0.0111331
0.000376673
0.011159
0.000421895
0.0111831
0.000455621
0.0112096
0.000509584
0.0112374
0.000549676
0.0112639
0.000614396
0.0112955
0.000662758
0.0113228
0.000737832
0.0113553
0.000801726
0.0113846
0.000886262
0.0114155
0.000969026
0.0114452
0.00107245
0.0114739
0.00117253
0.0115018
0.00130182
0.0115241
0.0014304
0.0115495
0.00158293
0.0115593
0.00175274
0.0115754
0.00193343
0.0115686
0.00214616
0.011562
0.00236315
0.0115333
0.00261126
0.0114804
0.0028772
0.01141
0.00315429
0.0112958
0.0034709
0.00377759
0.0111566
0.0100017
-1.68003e-06
0.0100068
-4.82248e-06
0.0100153
-8.33684e-06
0.0100265
-1.08468e-05
0.0100407
-1.36713e-05
0.0100568
-1.55809e-05
0.0100746
-1.69859e-05
0.0100936
-1.83015e-05
0.0101133
-1.84241e-05
0.0101337
-1.92813e-05
0.0101542
-1.90418e-05
0.0101755
-1.94345e-05
0.010197
-1.96533e-05
0.010219
-1.94371e-05
0.0102416
-2.00003e-05
0.0102642
-1.93478e-05
0.0102875
-1.95926e-05
0.0103106
-1.88828e-05
0.0103341
-1.84179e-05
0.0103575
-1.7934e-05
0.0103811
-1.67735e-05
0.0104048
-1.64594e-05
0.0104283
-1.45543e-05
0.0104521
-1.44885e-05
0.0104757
-1.1624e-05
0.0104993
-1.17107e-05
0.010523
-7.99995e-06
0.0105463
-7.71343e-06
0.0105701
-3.60952e-06
0.0105929
-2.53249e-06
0.0106165
2.18314e-06
0.0106391
3.57931e-06
0.0106621
9.92381e-06
0.0106847
1.10679e-05
0.0107069
1.91967e-05
0.0107294
2.11959e-05
0.0107513
2.95332e-05
0.0107728
3.45141e-05
0.0107953
4.20796e-05
0.010815
5.00632e-05
0.0108385
5.87505e-05
0.010857
6.76796e-05
0.0108806
7.96595e-05
0.0108989
8.91787e-05
0.0109222
0.000104188
0.0109407
0.000116085
0.0109637
0.000133485
0.010983
0.000147928
0.0110057
0.000169459
0.0110264
0.000185697
0.011049
0.000212186
0.0110715
0.000231711
0.0110951
0.000262051
0.0111189
0.000286939
0.011145
0.000321544
0.0111697
0.000351954
0.0111993
0.000392363
0.0112251
0.000429731
0.0112588
0.000475937
0.0112862
0.000522284
0.0113232
0.000577361
0.0113547
0.000631318
0.0113928
0.000699694
0.0114283
0.000766177
0.0114698
0.000844754
0.0115055
0.000933355
0.0115516
0.00102641
0.0115874
0.00113671
0.0116334
0.00125584
0.0116696
0.00139417
0.0117103
0.00154218
0.0117451
0.001718
0.0117702
0.00190833
0.0117979
0.00211837
0.0117966
0.00236448
0.0117995
0.00260842
0.0117648
0.00291188
0.0117134
0.00320562
0.0116335
0.0035508
0.00390812
0.011503
0.0100017
-3.41294e-06
0.0100071
-1.02014e-05
0.010016
-1.72334e-05
0.0100277
-2.25431e-05
0.0100425
-2.85149e-05
0.0100589
-3.19658e-05
0.0100773
-3.53743e-05
0.0100963
-3.72957e-05
0.0101162
-3.83138e-05
0.0101367
-3.97327e-05
0.0101572
-3.9586e-05
0.0101788
-4.10176e-05
0.0102001
-4.09818e-05
0.0102227
-4.20697e-05
0.010245
-4.22441e-05
0.0102683
-4.26211e-05
0.0102913
-4.25964e-05
0.0103147
-4.23334e-05
0.0103383
-4.20273e-05
0.0103617
-4.13056e-05
0.0103858
-4.08704e-05
0.0104091
-3.97336e-05
0.0104335
-3.89682e-05
0.0104568
-3.77579e-05
0.0104812
-3.61111e-05
0.0105045
-3.49647e-05
0.010529
-3.25146e-05
0.010552
-3.07011e-05
0.0105766
-2.82507e-05
0.0105992
-2.50759e-05
0.0106237
-2.2372e-05
0.0106462
-1.88695e-05
0.01067
-1.39032e-05
0.0106929
-1.18191e-05
0.0107156
-3.52994e-06
0.0107389
-2.06742e-06
0.0107609
7.49616e-06
0.0107839
1.15195e-05
0.0108059
2.00556e-05
0.0108282
2.78113e-05
0.0108505
3.63985e-05
0.0108721
4.61245e-05
0.0108946
5.71651e-05
0.0109162
6.76079e-05
0.0109382
8.21108e-05
0.0109607
9.36733e-05
0.0109824
0.000111739
0.0110057
0.000124592
0.011028
0.0001472
0.011052
0.000161657
0.0110758
0.000188437
0.0111005
0.000206977
0.0111267
0.000235874
0.0111525
0.000261155
0.0111814
0.000292652
0.0112094
0.000323942
0.0112409
0.000360809
0.0112721
0.000398592
0.0113072
0.000440805
0.0113413
0.000488198
0.0113813
0.000537339
0.0114188
0.000593859
0.0114632
0.000655224
0.0115062
0.000723248
0.011554
0.000796901
0.0116037
0.000883695
0.011654
0.00097609
0.011712
0.00107872
0.0117613
0.00120656
0.0118276
0.00132786
0.0118743
0.00149547
0.0119387
0.00165356
0.011985
0.00186212
0.0120304
0.00207291
0.0120696
0.00232531
0.0120746
0.0026034
0.0120881
0.00289833
0.0120448
0.003249
0.011999
0.00359654
0.00401939
0.0118878
0.0100019
-5.3024e-06
0.0100079
-1.61849e-05
0.0100175
-2.68971e-05
0.0100305
-3.54782e-05
0.0100463
-4.43932e-05
0.0100636
-4.92132e-05
0.0100826
-5.43814e-05
0.0101019
-5.65533e-05
0.010122
-5.84551e-05
0.0101425
-6.01934e-05
0.0101633
-6.03917e-05
0.010185
-6.27977e-05
0.0102067
-6.26506e-05
0.0102297
-6.50088e-05
0.0102521
-6.47036e-05
0.0102756
-6.61053e-05
0.0102988
-6.58069e-05
0.0103223
-6.58116e-05
0.0103463
-6.60396e-05
0.0103695
-6.44995e-05
0.0103942
-6.55796e-05
0.0104173
-6.28279e-05
0.0104422
-6.38725e-05
0.0104657
-6.12452e-05
0.0104901
-6.05651e-05
0.0105143
-5.91014e-05
0.0105382
-5.64522e-05
0.0105625
-5.49961e-05
0.0105865
-5.22757e-05
0.0106102
-4.86984e-05
0.0106348
-4.69982e-05
0.0106575
-4.15851e-05
0.0106824
-3.88366e-05
0.0107048
-3.42131e-05
0.0107293
-2.799e-05
0.010752
-2.47869e-05
0.0107755
-1.59888e-05
0.0107988
-1.17787e-05
0.0108213
-2.46938e-06
0.0108451
3.98227e-06
0.0108671
1.44174e-05
0.0108909
2.24015e-05
0.0109134
3.46539e-05
0.0109363
4.47008e-05
0.0109601
5.82471e-05
0.0109822
7.15739e-05
0.0110076
8.63586e-05
0.0110295
0.000102664
0.0110566
0.000120107
0.0110789
0.000139365
0.0111077
0.000159648
0.0111321
0.000182624
0.0111612
0.000206706
0.0111902
0.000232185
0.011219
0.000263855
0.0112537
0.000289276
0.0112836
0.000330876
0.0113227
0.000359512
0.0113571
0.000406369
0.0113995
0.000445808
0.0114396
0.000497227
0.0114878
0.000545661
0.0115319
0.000611094
0.0115882
0.000666979
0.0116394
0.000745683
0.0117009
0.00082223
0.0117628
0.00091422
0.0118308
0.00101067
0.0119021
0.00113525
0.0119747
0.00125526
0.0120577
0.0014125
0.0121289
0.00158234
0.0122157
0.00177539
0.0122794
0.00200917
0.0123528
0.00225189
0.0123943
0.00256196
0.0124289
0.00286366
0.0124303
0.00324764
0.0123896
0.00363723
0.00408037
0.0123286
0.0100022
-7.46521e-06
0.0100093
-2.33652e-05
0.0100204
-3.79173e-05
0.0100353
-5.03715e-05
0.0100528
-6.18882e-05
0.0100711
-6.76025e-05
0.0100911
-7.43179e-05
0.0101104
-7.58466e-05
0.0101312
-7.92362e-05
0.0101513
-8.02964e-05
0.010173
-8.21216e-05
0.0101947
-8.45394e-05
0.0102172
-8.51005e-05
0.0102404
-8.82425e-05
0.0102629
-8.7227e-05
0.0102873
-9.04422e-05
0.0103097
-8.82703e-05
0.0103346
-9.0665e-05
0.0103575
-8.89745e-05
0.0103821
-8.91218e-05
0.0104061
-8.95404e-05
0.0104301
-8.68628e-05
0.010455
-8.86953e-05
0.0104788
-8.50673e-05
0.0105037
-8.54857e-05
0.0105278
-8.32321e-05
0.0105525
-8.11179e-05
0.0105767
-7.92133e-05
0.0106015
-7.70727e-05
0.0106253
-7.24641e-05
0.0106504
-7.21246e-05
0.0106738
-6.49498e-05
0.0106989
-6.3915e-05
0.0107221
-5.74619e-05
0.0107471
-5.29743e-05
0.0107699
-4.76199e-05
0.0107952
-4.12585e-05
0.0108175
-3.40582e-05
0.0108429
-2.78728e-05
0.010865
-1.81243e-05
0.0108904
-1.09768e-05
0.0109123
4.41347e-07
0.0109382
8.77621e-06
0.0109601
2.27933e-05
0.0109862
3.2151e-05
0.0110096
4.82152e-05
0.0110347
6.12785e-05
0.0110611
7.6241e-05
0.0110852
9.59448e-05
0.0111141
0.000110549
0.0111398
0.000133871
0.0111695
0.000152991
0.0111989
0.000177251
0.0112298
0.00020132
0.0112625
0.000231147
0.0112976
0.000254209
0.0113319
0.000296483
0.0113733
0.000318186
0.0114119
0.000367728
0.0114563
0.00040145
0.0115046
0.000448936
0.0115524
0.000497847
0.0116081
0.000555332
0.0116657
0.000609414
0.0117296
0.000681763
0.0117947
0.000757201
0.0118741
0.000834754
0.011949
0.000935748
0.0120383
0.00104599
0.0121325
0.00116101
0.0122289
0.00131613
0.0123384
0.00147286
0.0124385
0.00167527
0.0125567
0.00189094
0.0126426
0.00216603
0.0127513
0.0024533
0.0127969
0.002818
0.0128666
0.00317796
0.0128377
0.00366615
0.00410657
0.0128115
0.0100031
-1.05182e-05
0.0100119
-3.21981e-05
0.0100258
-5.17904e-05
0.0100431
-6.77589e-05
0.010063
-8.16992e-05
0.0100825
-8.71684e-05
0.0101032
-9.50371e-05
0.0101228
-9.53639e-05
0.0101439
-0.000100419
0.0101644
-0.000100747
0.0101869
-0.000104612
0.0102092
-0.000106813
0.0102322
-0.00010812
0.010256
-0.000112078
0.0102785
-0.000109735
0.0103038
-0.000115674
0.0103255
-0.000110051
0.0103517
-0.000116846
0.0103737
-0.000110967
0.0103997
-0.0001151
0.0104231
-0.000112957
0.0104479
-0.000111659
0.0104729
-0.000113736
0.0104969
-0.000108984
0.0105225
-0.00011111
0.0105466
-0.000107353
0.0105718
-0.000106336
0.0105965
-0.000103861
0.0106214
-0.00010198
0.0106461
-9.72011e-05
0.0106709
-9.6905e-05
0.0106958
-8.98939e-05
0.01072
-8.80632e-05
0.0107455
-8.29709e-05
0.0107692
-7.66593e-05
0.0107943
-7.26999e-05
0.0108189
-6.59184e-05
0.0108425
-5.76379e-05
0.0108682
-5.36059e-05
0.0108915
-4.13853e-05
0.0109166
-3.60405e-05
0.0109415
-2.45157e-05
0.010965
-1.4696e-05
0.0109921
-4.37157e-06
0.0110137
1.05512e-05
0.0110445
1.75076e-05
0.0110642
4.15293e-05
0.011098
4.24707e-05
0.0111184
7.55668e-05
0.0111518
7.70812e-05
0.0111785
0.000107164
0.0112073
0.000124174
0.0112441
0.000140497
0.0112688
0.000176589
0.0113132
0.000186735
0.0113407
0.000226709
0.0113867
0.000250505
0.0114239
0.000281017
0.0114703
0.000321336
0.0115163
0.000355472
0.0115694
0.000395758
0.0116209
0.000446344
0.0116838
0.000492432
0.0117468
0.000546453
0.0118154
0.000613179
0.0118966
0.000675946
0.0119741
0.000757292
0.0120752
0.00083461
0.0121643
0.00095688
0.0122938
0.0010316
0.0123936
0.00121631
0.0125513
0.00131514
0.0126632
0.00156333
0.0128387
0.0017155
0.0129588
0.00204595
0.0131183
0.00229376
0.0132263
0.00271001
0.013327
0.00307723
0.0133861
0.00360704
0.00415
0.0133427
0.0100046
-1.51477e-05
0.0100165
-4.40564e-05
0.0100354
-7.06898e-05
0.0100564
-8.87418e-05
0.0100787
-0.000104007
0.0100991
-0.000107625
0.0101203
-0.000116162
0.0101401
-0.000115224
0.0101622
-0.000122498
0.0101833
-0.000121877
0.0102073
-0.000128549
0.0102295
-0.000129051
0.0102543
-0.000132873
0.0102773
-0.000135117
0.0103014
-0.000133864
0.0103257
-0.000139965
0.0103486
-0.00013297
0.0103746
-0.000142819
0.0103968
-0.000133137
0.0104237
-0.000141974
0.0104462
-0.000135537
0.0104727
-0.00013813
0.0104964
-0.00013747
0.0105221
-0.000134622
0.0105467
-0.000135765
0.0105718
-0.000132447
0.0105971
-0.000131664
0.0106214
-0.000128153
0.0106479
-0.000128459
0.0106709
-0.000120209
0.0106983
-0.00012428
0.010721
-0.00011262
0.0107476
-0.000114673
0.0107716
-0.000106935
0.0107968
-0.000101804
0.0108214
-9.73033e-05
0.0108466
-9.11383e-05
0.0108703
-8.13521e-05
0.0108964
-7.96827e-05
0.0109196
-6.45793e-05
0.0109462
-6.27317e-05
0.0109683
-4.65842e-05
0.0109981
-4.45078e-05
0.0110161
-2.22999e-05
0.0110518
-2.52186e-05
0.0110662
3.13449e-06
0.0111054
2.36344e-06
0.011122
2.58491e-05
0.0111584
3.91729e-05
0.0111816
5.38716e-05
0.0112168
7.19957e-05
0.011243
9.79342e-05
0.0112831
0.000100398
0.011308
0.00015165
0.0113564
0.000138417
0.011383
0.000200051
0.011435
0.000198568
0.0114721
0.000243905
0.0115236
0.00026975
0.0115726
0.000306518
0.0116296
0.00033878
0.0116867
0.000389239
0.011754
0.000425072
0.0118258
0.000474692
0.0118973
0.000541688
0.0119908
0.000582469
0.0120796
0.000668442
0.0121825
0.000731749
0.0123038
0.000835536
0.012425
0.000910429
0.0125791
0.00106217
0.0127252
0.00116907
0.0129247
0.00136389
0.0130864
0.00155373
0.0133217
0.0018107
0.0134868
0.00212864
0.0137089
0.00248795
0.0138462
0.00293991
0.0139961
0.00345716
0.00411233
0.0140337
0.0100073
-2.2469e-05
0.0100265
-6.32592e-05
0.0100521
-9.63014e-05
0.010077
-0.000113567
0.0101007
-0.000127754
0.0101227
-0.000129595
0.0101437
-0.000137225
0.0101651
-0.00013661
0.0101875
-0.000144871
0.010211
-0.000145384
0.0102352
-0.000152699
0.0102592
-0.000153097
0.0102835
-0.00015717
0.0103072
-0.000158829
0.0103311
-0.000157728
0.010355
-0.000163899
0.0103783
-0.000156307
0.0104032
-0.000167685
0.0104258
-0.00015577
0.0104518
-0.000167926
0.0104736
-0.00015732
0.0105004
-0.000164966
0.0105213
-0.000158389
0.0105488
-0.000162062
0.0105691
-0.000156053
0.0105965
-0.000159838
0.010617
-0.000152177
0.0106431
-0.000154304
0.010665
-0.000150289
0.0106891
-0.000144373
0.0107121
-0.000147236
0.0107353
-0.000135847
0.0107577
-0.000137066
0.0107816
-0.000130857
0.0108025
-0.000122672
0.0108272
-0.000122069
0.0108471
-0.000110951
0.0108725