/*--------------------------------*- C++ -*----------------------------------*\
| =========                 |                                                 |
| \\      /  F ield         | OpenFOAM: The Open Source CFD Toolbox           |
|  \\    /   O peration     | Version:  2306                                  |
|   \\  /    A nd           | Website:  www.openfoam.com                      |
|    \\/     M anipulation  |                                                 |
\*---------------------------------------------------------------------------*/
FoamFile
{
    version     2.0;
    format      ascii;
    arch        "LSB;label=32;scalar=64";
    class       volVectorField;
    location    "0.175";
    object      U;
}
// * * * * * * * * * * * * * * * * * * * * * * * * * * * * * * * * * * * * * //

dimensions      [0 1 -1 0 0 0 0];

internalField   nonuniform List<vector> 
4400
(
(9.90179 0.0455099 0)
(9.80629 0.0987209 0)
(9.70009 0.12096 0)
(9.5702 0.12579 0)
(9.41818 0.124489 0)
(9.25219 0.123445 0)
(9.0806 0.12415 0)
(8.90827 0.125679 0)
(8.7372 0.126985 0)
(8.56786 0.127406 0)
(8.40006 0.126869 0)
(8.23345 0.125549 0)
(8.06788 0.123758 0)
(7.90336 0.121742 0)
(7.73995 0.119646 0)
(7.57774 0.117544 0)
(7.41695 0.115415 0)
(7.25773 0.113248 0)
(7.10012 0.111056 0)
(6.94431 0.108763 0)
(6.79032 0.106424 0)
(6.63835 0.104015 0)
(6.48819 0.101604 0)
(6.34028 0.099095 0)
(6.19429 0.0965893 0)
(6.05065 0.0940902 0)
(5.90898 0.0915847 0)
(5.76969 0.0890565 0)
(5.63258 0.0865349 0)
(5.49767 0.0841422 0)
(5.36514 0.0816972 0)
(5.23459 0.0793608 0)
(5.10657 0.0770358 0)
(4.98021 0.074889 0)
(4.8563 0.0727637 0)
(4.73378 0.0707303 0)
(4.61343 0.0688883 0)
(4.49419 0.0671833 0)
(4.37654 0.0657734 0)
(4.25963 0.0644414 0)
(4.14356 0.0635879 0)
(4.02771 0.0628666 0)
(3.91173 0.0628214 0)
(3.79527 0.0627985 0)
(3.67755 0.0636478 0)
(3.5583 0.0645108 0)
(3.43657 0.0663936 0)
(3.31176 0.0683603 0)
(3.18312 0.0713387 0)
(3.04941 0.0745639 0)
(2.91031 0.0787778 0)
(2.76376 0.0834331 0)
(2.61005 0.0889588 0)
(2.44621 0.0950623 0)
(2.27319 0.101852 0)
(2.08722 0.10925 0)
(1.89012 0.116891 0)
(1.67736 0.124861 0)
(1.45203 0.132318 0)
(1.20919 0.139083 0)
(0.953943 0.143926 0)
(0.681368 0.146099 0)
(0.399087 0.143807 0)
(0.104313 0.133541 0)
(-0.186414 0.0904983 0)
(-0.465274 -0.00824616 0)
(-0.665111 -0.143654 0)
(-0.766632 -0.284975 0)
(-0.749855 -0.440443 0)
(-0.626233 -0.611408 0)
(-0.354659 -0.770239 0)
(-0.00547981 -0.836534 0)
(0.278691 -0.57727 0)
(0.463435 0.0772701 0)
(0.186558 0.919941 0)
(-0.541957 0.931907 0)
(-0.345567 0.179039 0)
(0.0510608 -0.0805113 0)
(0.215079 -0.212854 0)
(0.0857815 -0.383151 0)
(10.0002 0.0611737 0)
(10.0319 0.137476 0)
(10.0696 0.1736 0)
(10.105 0.184959 0)
(10.1325 0.186154 0)
(10.1501 0.186238 0)
(10.1589 0.188282 0)
(10.1611 0.191967 0)
(10.159 0.19591 0)
(10.1539 0.199104 0)
(10.1466 0.201115 0)
(10.137 0.202004 0)
(10.1251 0.202137 0)
(10.1108 0.201815 0)
(10.094 0.201288 0)
(10.0747 0.20072 0)
(10.0531 0.200051 0)
(10.0291 0.199351 0)
(10.0029 0.198591 0)
(9.97486 0.197589 0)
(9.94445 0.196663 0)
(9.91269 0.195341 0)
(9.87832 0.194238 0)
(9.84301 0.192702 0)
(9.80507 0.191333 0)
(9.76629 0.189756 0)
(9.72508 0.188152 0)
(9.68268 0.186611 0)
(9.63863 0.184732 0)
(9.59257 0.18333 0)
(9.54578 0.181352 0)
(9.49609 0.18002 0)
(9.44646 0.178111 0)
(9.39334 0.176823 0)
(9.34038 0.175274 0)
(9.28397 0.174051 0)
(9.22717 0.172954 0)
(9.16744 0.172048 0)
(9.1061 0.171574 0)
(9.04269 0.171284 0)
(8.976 0.171531 0)
(8.90828 0.172163 0)
(8.83519 0.173441 0)
(8.76209 0.175423 0)
(8.68139 0.178052 0)
(8.60133 0.181761 0)
(8.51167 0.186135 0)
(8.42235 0.192084 0)
(8.32195 0.198675 0)
(8.22051 0.207287 0)
(8.10695 0.216633 0)
(7.98998 0.228327 0)
(7.85998 0.24104 0)
(7.72341 0.256156 0)
(7.5729 0.272663 0)
(7.41175 0.29144 0)
(7.23599 0.311754 0)
(7.04437 0.334152 0)
(6.83789 0.357489 0)
(6.60946 0.382616 0)
(6.36624 0.407057 0)
(6.09476 0.431978 0)
(5.80959 0.453751 0)
(5.48805 0.470918 0)
(5.15908 0.479835 0)
(4.79125 0.470252 0)
(4.42579 0.437434 0)
(3.99428 0.388409 0)
(3.52275 0.324825 0)
(2.92821 0.268664 0)
(2.18791 0.214811 0)
(1.19331 0.251506 0)
(0.0148781 0.144222 0)
(-0.539871 0.0173436 0)
(-0.691493 0.00615341 0)
(-0.408191 -0.395405 0)
(-0.280791 -0.951581 0)
(-0.662495 -0.545764 0)
(-0.439266 0.24299 0)
(-0.245993 0.400675 0)
(10.0001 0.0267119 0)
(10.0168 0.0698197 0)
(10.0428 0.099839 0)
(10.0748 0.117562 0)
(10.1082 0.126794 0)
(10.1395 0.131883 0)
(10.1671 0.135911 0)
(10.1911 0.140337 0)
(10.2127 0.145357 0)
(10.2332 0.150332 0)
(10.2532 0.154961 0)
(10.2733 0.158627 0)
(10.2933 0.161742 0)
(10.3131 0.164058 0)
(10.3324 0.166092 0)
(10.3511 0.167828 0)
(10.369 0.169382 0)
(10.3863 0.170901 0)
(10.4023 0.172261 0)
(10.4182 0.173426 0)
(10.4324 0.174675 0)
(10.4468 0.175434 0)
(10.4592 0.176549 0)
(10.4718 0.176964 0)
(10.4825 0.177882 0)
(10.493 0.178156 0)
(10.5019 0.178834 0)
(10.5097 0.179167 0)
(10.5169 0.179467 0)
(10.522 0.180111 0)
(10.5272 0.180109 0)
(10.5292 0.181064 0)
(10.5322 0.181034 0)
(10.5311 0.182175 0)
(10.5313 0.182653 0)
(10.5272 0.183904 0)
(10.5239 0.185167 0)
(10.5169 0.186722 0)
(10.5094 0.189139 0)
(10.4994 0.191209 0)
(10.4868 0.195214 0)
(10.4738 0.19783 0)
(10.4551 0.204277 0)
(10.439 0.207636 0)
(10.4131 0.217176 0)
(10.3932 0.221886 0)
(10.3592 0.2347 0)
(10.3344 0.242147 0)
(10.2914 0.258148 0)
(10.2601 0.269749 0)
(10.207 0.289096 0)
(10.1674 0.306008 0)
(10.1021 0.329295 0)
(10.053 0.352482 0)
(9.97198 0.380158 0)
(9.91202 0.410452 0)
(9.81113 0.442741 0)
(9.73835 0.480318 0)
(9.6128 0.516971 0)
(9.52389 0.560666 0)
(9.36828 0.599916 0)
(9.25823 0.646245 0)
(9.06521 0.682667 0)
(8.92605 0.723413 0)
(8.68331 0.744563 0)
(8.50258 0.765017 0)
(8.18511 0.754609 0)
(7.93948 0.750561 0)
(7.50367 0.734788 0)
(7.17409 0.761057 0)
(6.58108 0.817019 0)
(6.16468 0.937907 0)
(5.37862 1.05899 0)
(4.90717 0.981454 0)
(4.02246 0.912338 0)
(3.33824 0.658892 0)
(2.29398 0.613766 0)
(0.476192 0.166945 0)
(-0.144698 -0.586778 0)
(-0.610187 -1.06328 0)
(10.0001 0.018802 0)
(10.01 0.0527151 0)
(10.0277 0.0805987 0)
(10.051 0.101284 0)
(10.0779 0.114677 0)
(10.1052 0.123159 0)
(10.1317 0.128383 0)
(10.1562 0.13255 0)
(10.1794 0.136313 0)
(10.2015 0.140262 0)
(10.2234 0.14404 0)
(10.2455 0.147466 0)
(10.2681 0.150348 0)
(10.2912 0.15273 0)
(10.3145 0.154483 0)
(10.3379 0.156143 0)
(10.3612 0.157244 0)
(10.3847 0.158604 0)
(10.4074 0.159566 0)
(10.4308 0.160509 0)
(10.4529 0.161755 0)
(10.4763 0.162106 0)
(10.4977 0.163707 0)
(10.5207 0.163507 0)
(10.5417 0.165301 0)
(10.5638 0.165023 0)
(10.5846 0.166562 0)
(10.6051 0.166767 0)
(10.6258 0.167669 0)
(10.6446 0.168853 0)
(10.6647 0.169054 0)
(10.6816 0.171203 0)
(10.7008 0.171147 0)
(10.7158 0.173988 0)
(10.7341 0.174411 0)
(10.7464 0.177617 0)
(10.7638 0.179073 0)
(10.7732 0.182728 0)
(10.7893 0.185632 0)
(10.7959 0.190088 0)
(10.8095 0.19458 0)
(10.8142 0.200505 0)
(10.8242 0.206808 0)
(10.8272 0.214948 0)
(10.8325 0.223449 0)
(10.8345 0.23414 0)
(10.8333 0.245935 0)
(10.8359 0.259321 0)
(10.8255 0.275654 0)
(10.8299 0.292237 0)
(10.8094 0.313789 0)
(10.8143 0.334817 0)
(10.7848 0.362162 0)
(10.7877 0.388566 0)
(10.7498 0.422896 0)
(10.749 0.454694 0)
(10.7026 0.497551 0)
(10.6962 0.534142 0)
(10.6406 0.58614 0)
(10.6255 0.626568 0)
(10.559 0.685795 0)
(10.5307 0.727909 0)
(10.4471 0.789626 0)
(10.3993 0.827258 0)
(10.2825 0.885803 0)
(10.206 0.910854 0)
(10.0298 0.968582 0)
(9.91195 0.987538 0)
(9.65469 1.06712 0)
(9.47896 1.10738 0)
(9.13466 1.23983 0)
(8.87961 1.31199 0)
(8.46677 1.46543 0)
(8.06854 1.47675 0)
(7.6152 1.53524 0)
(6.97651 1.47666 0)
(6.46645 1.48809 0)
(5.49769 1.53234 0)
(4.8324 1.33855 0)
(3.6827 1.1575 0)
(10 0.0133924 0)
(10.0069 0.0384482 0)
(10.0196 0.0604393 0)
(10.0369 0.0779139 0)
(10.0584 0.0904588 0)
(10.0816 0.0989863 0)
(10.1058 0.104383 0)
(10.1289 0.108273 0)
(10.1519 0.111348 0)
(10.1737 0.11436 0)
(10.1959 0.117381 0)
(10.2174 0.12023 0)
(10.24 0.122969 0)
(10.2623 0.125196 0)
(10.2858 0.127193 0)
(10.3089 0.128752 0)
(10.3326 0.130142 0)
(10.3563 0.131394 0)
(10.3794 0.132475 0)
(10.4037 0.133548 0)
(10.4261 0.134774 0)
(10.4511 0.135466 0)
(10.4726 0.137114 0)
(10.498 0.137197 0)
(10.5188 0.139441 0)
(10.5445 0.139147 0)
(10.5645 0.141544 0)
(10.5899 0.141562 0)
(10.6094 0.143554 0)
(10.6342 0.144646 0)
(10.653 0.145926 0)
(10.6769 0.14814 0)
(10.6948 0.149357 0)
(10.7181 0.152158 0)
(10.7346 0.154246 0)
(10.7568 0.157258 0)
(10.7724 0.160517 0)
(10.7925 0.16456 0)
(10.8081 0.168429 0)
(10.8247 0.174581 0)
(10.8409 0.179078 0)
(10.8539 0.187343 0)
(10.8699 0.194077 0)
(10.8802 0.203556 0)
(10.8947 0.213894 0)
(10.9028 0.225103 0)
(10.9158 0.238945 0)
(10.9217 0.253545 0)
(10.9317 0.27131 0)
(10.938 0.289245 0)
(10.9419 0.313383 0)
(10.9514 0.33399 0)
(10.948 0.366111 0)
(10.9606 0.390657 0)
(10.9505 0.430532 0)
(10.9659 0.460873 0)
(10.9491 0.508545 0)
(10.9679 0.545214 0)
(10.9433 0.601033 0)
(10.9653 0.643118 0)
(10.9304 0.706493 0)
(10.9541 0.752345 0)
(10.9053 0.820055 0)
(10.9215 0.868751 0)
(10.8562 0.93768 0)
(10.8489 0.990177 0)
(10.7626 1.06609 0)
(10.7146 1.12897 0)
(10.6027 1.22561 0)
(10.4953 1.30888 0)
(10.3591 1.44002 0)
(10.1736 1.54254 0)
(10.0187 1.69785 0)
(9.72806 1.78613 0)
(9.54306 1.91421 0)
(9.11922 1.96668 0)
(8.83524 2.02868 0)
(8.24729 2.06981 0)
(7.67432 1.97348 0)
(6.89425 1.88219 0)
(9.99984 0.00968364 0)
(10.0054 0.0280019 0)
(10.0149 0.0448069 0)
(10.029 0.0587957 0)
(10.0464 0.069831 0)
(10.0666 0.0778186 0)
(10.0881 0.0832715 0)
(10.1101 0.0871489 0)
(10.1323 0.0900447 0)
(10.154 0.0926277 0)
(10.1758 0.0950974 0)
(10.1974 0.0975276 0)
(10.2196 0.0998421 0)
(10.2416 0.10203 0)
(10.2647 0.103758 0)
(10.2872 0.105603 0)
(10.311 0.106661 0)
(10.3337 0.108293 0)
(10.3578 0.108946 0)
(10.3807 0.110425 0)
(10.4046 0.111303 0)
(10.4279 0.112245 0)
(10.451 0.11388 0)
(10.475 0.113926 0)
(10.497 0.116683 0)
(10.522 0.115862 0)
(10.5424 0.119435 0)
(10.5683 0.118378 0)
(10.5873 0.122239 0)
(10.6135 0.121825 0)
(10.6313 0.125228 0)
(10.6573 0.126291 0)
(10.6741 0.128954 0)
(10.6996 0.131863 0)
(10.7152 0.134159 0)
(10.7401 0.138305 0)
(10.7543 0.141808 0)
(10.7787 0.146051 0)
(10.7915 0.152169 0)
(10.8147 0.156285 0)
(10.8263 0.164947 0)
(10.8482 0.170559 0)
(10.8585 0.180927 0)
(10.8793 0.189043 0)
(10.8875 0.201965 0)
(10.9082 0.212066 0)
(10.9138 0.229161 0)
(10.9342 0.241895 0)
(10.9376 0.262696 0)
(10.9578 0.280367 0)
(10.9589 0.304807 0)
(10.98 0.32783 0)
(10.9781 0.358082 0)
(11.0003 0.38627 0)
(10.997 0.422952 0)
(11.0192 0.45832 0)
(11.0162 0.500534 0)
(11.0377 0.544927 0)
(11.0356 0.591505 0)
(11.0548 0.64665 0)
(11.0545 0.695632 0)
(11.0683 0.761383 0)
(11.068 0.81379 0)
(11.0715 0.887693 0)
(11.0694 0.946822 0)
(11.0536 1.03072 0)
(11.0467 1.10265 0)
(11.004 1.19798 0)
(10.9847 1.29815 0)
(10.9086 1.40266 0)
(10.8752 1.54177 0)
(10.7534 1.66452 0)
(10.7089 1.82048 0)
(10.5348 1.97258 0)
(10.4526 2.10271 0)
(10.2282 2.26297 0)
(10.028 2.34219 0)
(9.73187 2.48007 0)
(9.29375 2.5149 0)
(8.87729 2.58473 0)
(9.99979 0.0069136 0)
(10.0046 0.0201038 0)
(10.0122 0.0325869 0)
(10.0244 0.0431637 0)
(10.039 0.0521715 0)
(10.0571 0.0589091 0)
(10.0764 0.0638895 0)
(10.0974 0.0674845 0)
(10.1185 0.0699712 0)
(10.1402 0.0722975 0)
(10.1616 0.074033 0)
(10.1832 0.0762096 0)
(10.2051 0.0778452 0)
(10.2269 0.0798387 0)
(10.2498 0.0813031 0)
(10.2718 0.0829008 0)
(10.2958 0.0840741 0)
(10.3177 0.0853171 0)
(10.3424 0.0862063 0)
(10.3642 0.0874509 0)
(10.3895 0.0882808 0)
(10.4108 0.0894345 0)
(10.4363 0.0906266 0)
(10.4574 0.0913879 0)
(10.4827 0.0934349 0)
(10.5041 0.0935595 0)
(10.5283 0.0964438 0)
(10.5505 0.0963851 0)
(10.5733 0.0997616 0)
(10.596 0.100065 0)
(10.6175 0.103674 0)
(10.6401 0.104535 0)
(10.6609 0.108903 0)
(10.6829 0.109937 0)
(10.7028 0.115693 0)
(10.7242 0.116826 0)
(10.743 0.124218 0)
(10.7637 0.126213 0)
(10.7815 0.134619 0)
(10.8011 0.138587 0)
(10.8178 0.147776 0)
(10.837 0.154431 0)
(10.8514 0.164776 0)
(10.8715 0.174307 0)
(10.8822 0.186432 0)
(10.9041 0.199327 0)
(10.9114 0.214004 0)
(10.9343 0.230638 0)
(10.9393 0.248621 0)
(10.9624 0.26966 0)
(10.9666 0.291932 0)
(10.9888 0.317412 0)
(10.994 0.346096 0)
(11.0139 0.375405 0)
(11.0226 0.411618 0)
(11.0383 0.446937 0)
(11.0535 0.488723 0)
(11.0624 0.532635 0)
(11.0865 0.580497 0)
(11.0869 0.631378 0)
(11.1195 0.688192 0)
(11.1115 0.744471 0)
(11.1479 0.813179 0)
(11.1329 0.873063 0)
(11.1696 0.959675 0)
(11.1405 1.02533 0)
(11.1815 1.128 0)
(11.126 1.21844 0)
(11.1703 1.32357 0)
(11.0899 1.46115 0)
(11.1196 1.56762 0)
(11.0306 1.74865 0)
(11.0245 1.87242 0)
(10.934 2.07438 0)
(10.8792 2.21158 0)
(10.7663 2.41979 0)
(10.641 2.54538 0)
(10.4575 2.75144 0)
(10.2283 2.86881 0)
(9.88641 3.03997 0)
(9.99995 0.00463119 0)
(10.0039 0.0137222 0)
(10.0108 0.0222513 0)
(10.0214 0.0297429 0)
(10.0347 0.0362616 0)
(10.051 0.0413168 0)
(10.0691 0.0452623 0)
(10.0888 0.0480578 0)
(10.1093 0.0501696 0)
(10.1305 0.0518058 0)
(10.1518 0.0533231 0)
(10.1734 0.054656 0)
(10.1951 0.0562181 0)
(10.217 0.0573315 0)
(10.2394 0.0589959 0)
(10.2617 0.0598082 0)
(10.2849 0.0613397 0)
(10.3072 0.0619192 0)
(10.3316 0.0632502 0)
(10.3533 0.0639137 0)
(10.3789 0.0651916 0)
(10.3994 0.0658369 0)
(10.4264 0.0674924 0)
(10.4454 0.0679177 0)
(10.4737 0.0703244 0)
(10.4913 0.0702628 0)
(10.5203 0.0736833 0)
(10.5373 0.0731126 0)
(10.5659 0.0778476 0)
(10.5829 0.0765934 0)
(10.6105 0.0828219 0)
(10.6276 0.0812941 0)
(10.6543 0.0885861 0)
(10.671 0.0878509 0)
(10.697 0.0953405 0)
(10.7129 0.0962306 0)
(10.7386 0.104456 0)
(10.7528 0.106074 0)
(10.7793 0.116724 0)
(10.7899 0.118177 0)
(10.8196 0.131811 0)
(10.8245 0.13454 0)
(10.8588 0.149806 0)
(10.8574 0.155311 0)
(10.8955 0.172881 0)
(10.8896 0.180059 0)
(10.9306 0.202855 0)
(10.9204 0.210493 0)
(10.9648 0.239307 0)
(10.9502 0.249418 0)
(10.9982 0.282817 0)
(10.98 0.298168 0)
(11.0317 0.335804 0)
(11.0101 0.35658 0)
(11.0661 0.40117 0)
(11.042 0.425499 0)
(11.1008 0.480172 0)
(11.077 0.507018 0)
(11.1365 0.573554 0)
(11.1137 0.60279 0)
(11.1745 0.682616 0)
(11.1494 0.716239 0)
(11.2129 0.80778 0)
(11.1829 0.853163 0)
(11.2476 0.952881 0)
(11.2103 1.01854 0)
(11.275 1.12697 0)
(11.224 1.21741 0)
(11.2907 1.34332 0)
(11.2169 1.45862 0)
(11.288 1.60971 0)
(11.1872 1.75677 0)
(11.2537 1.92636 0)
(11.1313 2.11039 0)
(11.1771 2.2963 0)
(11.0218 2.49226 0)
(11.0398 2.71258 0)
(10.8113 2.88984 0)
(10.7745 3.14874 0)
(10.4538 3.31473 0)
(10 0.00263224 0)
(10.0034 0.00811067 0)
(10.01 0.0130606 0)
(10.0196 0.0175262 0)
(10.0323 0.0215898 0)
(10.0473 0.0245466 0)
(10.0647 0.0273184 0)
(10.0835 0.0288857 0)
(10.1036 0.0304962 0)
(10.1245 0.0315222 0)
(10.1456 0.032433 0)
(10.1673 0.0336036 0)
(10.1888 0.0341936 0)
(10.2108 0.0355267 0)
(10.2331 0.0361915 0)
(10.2552 0.0372682 0)
(10.2785 0.0382002 0)
(10.3005 0.0387725 0)
(10.325 0.0401023 0)
(10.3468 0.0403724 0)
(10.372 0.0420618 0)
(10.3933 0.0421024 0)
(10.4193 0.0444667 0)
(10.4398 0.0441045 0)
(10.4666 0.0474431 0)
(10.486 0.0466196 0)
(10.5135 0.0507678 0)
(10.532 0.0502914 0)
(10.5598 0.0543623 0)
(10.5775 0.0552294 0)
(10.6056 0.0587207 0)
(10.622 0.061172 0)
(10.6508 0.0647878 0)
(10.6653 0.0679437 0)
(10.6948 0.0729337 0)
(10.7078 0.0762008 0)
(10.7376 0.0832978 0)
(10.7489 0.0866094 0)
(10.7796 0.0962777 0)
(10.7872 0.0993784 0)
(10.822 0.112633 0)
(10.8228 0.115669 0)
(10.8642 0.132058 0)
(10.8565 0.137088 0)
(10.9051 0.155031 0)
(10.8897 0.163839 0)
(10.9445 0.184219 0)
(10.9228 0.195405 0)
(10.9826 0.22105 0)
(10.9564 0.233705 0)
(11.0199 0.265927 0)
(10.9913 0.280128 0)
(11.0572 0.321069 0)
(11.0278 0.335491 0)
(11.096 0.386612 0)
(11.066 0.404182 0)
(11.1375 0.461205 0)
(11.1061 0.489112 0)
(11.1831 0.547157 0)
(11.147 0.590644 0)
(11.2324 0.648186 0)
(11.1905 0.710584 0)
(11.2805 0.769793 0)
(11.2385 0.848846 0)
(11.3243 0.923273 0)
(11.2861 1.00738 0)
(11.3646 1.11301 0)
(11.325 1.20554 0)
(11.3995 1.33558 0)
(11.3471 1.45982 0)
(11.4278 1.60703 0)
(11.3412 1.76669 0)
(11.4399 1.94723 0)
(11.3088 2.12735 0)
(11.4057 2.35092 0)
(11.2489 2.55045 0)
(11.2928 2.80341 0)
(11.13 3.03361 0)
(11.0811 3.29481 0)
(10.869 3.56658 0)
(9.99974 0.000898361 0)
(10.0036 0.00279532 0)
(10.0093 0.00443064 0)
(10.0191 0.00602237 0)
(10.0308 0.00743497 0)
(10.0459 0.00852762 0)
(10.0624 0.00954885 0)
(10.0812 0.0101848 0)
(10.1009 0.010798 0)
(10.1217 0.0114152 0)
(10.1428 0.0116709 0)
(10.1642 0.0124828 0)
(10.186 0.0125886 0)
(10.2078 0.0134975 0)
(10.2302 0.0138788 0)
(10.2523 0.0144619 0)
(10.2755 0.0153798 0)
(10.2977 0.0155035 0)
(10.3219 0.0170131 0)
(10.3443 0.0168935 0)
(10.3687 0.0187324 0)
(10.3913 0.0187372 0)
(10.4159 0.0208044 0)
(10.4382 0.0211477 0)
(10.4633 0.023344 0)
(10.4847 0.0242001 0)
(10.5107 0.0266078 0)
(10.5309 0.0279605 0)
(10.5578 0.0310002 0)
(10.5764 0.0322772 0)
(10.6046 0.0368922 0)
(10.6208 0.0375876 0)
(10.6516 0.044026 0)
(10.6636 0.0448532 0)
(10.6979 0.0521623 0)
(10.7059 0.0545032 0)
(10.7421 0.0623846 0)
(10.7487 0.0657533 0)
(10.7837 0.076156 0)
(10.7913 0.0787268 0)
(10.8244 0.0935618 0)
(10.8323 0.0951902 0)
(10.8649 0.113859 0)
(10.8718 0.116705 0)
(10.9049 0.137608 0)
(10.9102 0.143696 0)
(10.9457 0.166913 0)
(10.9466 0.175677 0)
(10.9878 0.203562 0)
(10.9829 0.214132 0)
(11.03 0.247019 0)
(11.021 0.262588 0)
(11.0738 0.297071 0)
(11.0597 0.321692 0)
(11.1214 0.357779 0)
(11.1006 0.390087 0)
(11.1705 0.431874 0)
(11.148 0.470044 0)
(11.2207 0.520845 0)
(11.1996 0.563531 0)
(11.2775 0.628033 0)
(11.2512 0.674753 0)
(11.3402 0.753772 0)
(11.3064 0.813378 0)
(11.4033 0.900379 0)
(11.3645 0.983988 0)
(11.4665 1.08267 0)
(11.4208 1.18731 0)
(11.5246 1.31464 0)
(11.4753 1.43683 0)
(11.5671 1.60067 0)
(11.5226 1.75242 0)
(11.5862 1.94467 0)
(11.5488 2.14608 0)
(11.5701 2.35746 0)
(11.5301 2.61375 0)
(11.5091 2.84901 0)
(11.4241 3.1447 0)
(11.3742 3.42513 0)
(11.207 3.72628 0)
(9.99936 -0.000892974 0)
(10.0039 -0.00223582 0)
(10.009 -0.00416098 0)
(10.0194 -0.00516844 0)
(10.0307 -0.00652239 0)
(10.0462 -0.00740982 0)
(10.0624 -0.00786632 0)
(10.0814 -0.00879847 0)
(10.101 -0.0083902 0)
(10.1219 -0.00917445 0)
(10.1429 -0.00862317 0)
(10.1646 -0.0089608 0)
(10.186 -0.00881875 0)
(10.2084 -0.00846551 0)
(10.2302 -0.00866193 0)
(10.253 -0.00795202 0)
(10.2757 -0.00797768 0)
(10.2984 -0.00721064 0)
(10.3225 -0.00677951 0)
(10.3446 -0.00602748 0)
(10.3701 -0.00522124 0)
(10.3914 -0.00440353 0)
(10.418 -0.00290865 0)
(10.4383 -0.00260708 0)
(10.4658 0.000448049 0)
(10.4852 -0.000421938 0)
(10.5134 0.00468867 0)
(10.5323 0.00294935 0)
(10.5602 0.00933914 0)
(10.5794 0.00799969 0)
(10.6064 0.0147519 0)
(10.6257 0.0144568 0)
(10.6531 0.0217328 0)
(10.6698 0.0223192 0)
(10.7004 0.0303073 0)
(10.7124 0.0327059 0)
(10.7471 0.0401622 0)
(10.7547 0.0457586 0)
(10.792 0.0529132 0)
(10.7971 0.0601327 0)
(10.8355 0.0707533 0)
(10.8395 0.0761829 0)
(10.8775 0.0925147 0)
(10.8822 0.0971644 0)
(10.9178 0.116799 0)
(10.9262 0.124598 0)
(10.9576 0.145202 0)
(10.9695 0.158 0)
(10.9995 0.179412 0)
(11.0119 0.198331 0)
(11.0437 0.220682 0)
(11.0558 0.24576 0)
(11.09 0.271768 0)
(11.1012 0.299611 0)
(11.1413 0.335362 0)
(11.1478 0.361957 0)
(11.198 0.410631 0)
(11.1992 0.437729 0)
(11.2584 0.497565 0)
(11.256 0.530201 0)
(11.3264 0.599308 0)
(11.3145 0.643456 0)
(11.4044 0.7185 0)
(11.3774 0.781967 0)
(11.4856 0.86558 0)
(11.4516 0.945653 0)
(11.5636 1.05197 0)
(11.538 1.14927 0)
(11.6341 1.27645 0)
(11.6331 1.41498 0)
(11.6962 1.55317 0)
(11.7189 1.74381 0)
(11.7554 1.91138 0)
(11.7712 2.1406 0)
(11.7975 2.36531 0)
(11.7743 2.61755 0)
(11.7898 2.91638 0)
(11.7129 3.18846 0)
(11.678 3.54422 0)
(11.5655 3.86388 0)
(9.99933 -0.00257545 0)
(10.0041 -0.00765144 0)
(10.0092 -0.0127663 0)
(10.0205 -0.0167564 0)
(10.0316 -0.0207005 0)
(10.0483 -0.0234936 0)
(10.0641 -0.0257295 0)
(10.0845 -0.0274926 0)
(10.1035 -0.028184 0)
(10.1253 -0.0292539 0)
(10.1459 -0.0295528 0)
(10.1681 -0.0300032 0)
(10.1892 -0.0306769 0)
(10.212 -0.0303432 0)
(10.2335 -0.0313906 0)
(10.2569 -0.0305571 0)
(10.2791 -0.0312409 0)
(10.3028 -0.0304358 0)
(10.3261 -0.0301432 0)
(10.3496 -0.0298702 0)
(10.3735 -0.0284065 0)
(10.3972 -0.0286377 0)
(10.4211 -0.0261998 0)
(10.4451 -0.0265626 0)
(10.4688 -0.0236335 0)
(10.4928 -0.0232206 0)
(10.5165 -0.020628 0)
(10.5407 -0.0185472 0)
(10.5635 -0.016596 0)
(10.5892 -0.0130875 0)
(10.6093 -0.0105024 0)
(10.6374 -0.00727769 0)
(10.6556 -0.00204603 0)
(10.6831 -0.000274737 0)
(10.7037 0.00798219 0)
(10.7264 0.00957896 0)
(10.7523 0.0187941 0)
(10.7689 0.0230412 0)
(10.8 0.0310026 0)
(10.8108 0.0396859 0)
(10.8479 0.0463651 0)
(10.8515 0.0589184 0)
(10.8951 0.065995 0)
(10.8936 0.0812298 0)
(10.9393 0.0902507 0)
(10.9393 0.10783 0)
(10.9817 0.120156 0)
(10.9857 0.138015 0)
(11.0263 0.157876 0)
(11.0322 0.173008 0)
(11.0726 0.202121 0)
(11.0828 0.217208 0)
(11.119 0.251185 0)
(11.1371 0.272587 0)
(11.1723 0.307354 0)
(11.19 0.339348 0)
(11.2354 0.373087 0)
(11.247 0.419212 0)
(11.3025 0.451265 0)
(11.314 0.511961 0)
(11.3747 0.550084 0)
(11.3895 0.616455 0)
(11.4535 0.673363 0)
(11.4781 0.745707 0)
(11.5365 0.815546 0)
(11.5769 0.912159 0)
(11.635 0.992234 0)
(11.6738 1.11112 0)
(11.752 1.22519 0)
(11.7718 1.35856 0)
(11.875 1.51851 0)
(11.8694 1.6786 0)
(11.991 1.89176 0)
(11.9623 2.08611 0)
(12.0693 2.35838 0)
(12.0398 2.60559 0)
(12.078 2.92921 0)
(12.0516 3.24675 0)
(12.0033 3.60073 0)
(11.9461 4.00004 0)
(9.99964 -0.00444976 0)
(10.0041 -0.0132506 0)
(10.0103 -0.0222064 0)
(10.022 -0.0286221 0)
(10.0343 -0.0359857 0)
(10.0518 -0.0398032 0)
(10.0687 -0.0443299 0)
(10.0897 -0.0464174 0)
(10.1096 -0.0480055 0)
(10.1313 -0.0499682 0)
(10.1527 -0.0498672 0)
(10.1742 -0.0522407 0)
(10.1962 -0.0515205 0)
(10.2185 -0.0537775 0)
(10.2404 -0.0529895 0)
(10.2642 -0.0545766 0)
(10.286 -0.0537496 0)
(10.3111 -0.0543352 0)
(10.3328 -0.0538175 0)
(10.3588 -0.0530773 0)
(10.3803 -0.0533039 0)
(10.4071 -0.0511551 0)
(10.4282 -0.0517881 0)
(10.4552 -0.0491381 0)
(10.4769 -0.0487852 0)
(10.5024 -0.0467029 0)
(10.5264 -0.044748 0)
(10.5496 -0.0427471 0)
(10.5752 -0.0402814 0)
(10.598 -0.0369488 0)
(10.6218 -0.0345183 0)
(10.6477 -0.0304742 0)
(10.6675 -0.0259182 0)
(10.6965 -0.02352 0)
(10.7141 -0.0151004 0)
(10.7435 -0.0138275 0)
(10.7611 -0.00390038 0)
(10.7899 2.29301e-06 0)
(10.8075 0.00872694 0)
(10.8356 0.0162171 0)
(10.8553 0.0257837 0)
(10.8788 0.0335628 0)
(10.9046 0.0478406 0)
(10.9217 0.053487 0)
(10.9528 0.0741678 0)
(10.9676 0.0780792 0)
(10.9995 0.104217 0)
(11.0147 0.109035 0)
(11.0496 0.137773 0)
(11.061 0.147816 0)
(11.1036 0.175957 0)
(11.1103 0.194457 0)
(11.159 0.220677 0)
(11.1647 0.248907 0)
(11.2193 0.275437 0)
(11.2225 0.309486 0)
(11.2863 0.344178 0)
(11.2888 0.378526 0)
(11.3556 0.425962 0)
(11.3682 0.462657 0)
(11.4333 0.520692 0)
(11.4509 0.566406 0)
(11.5324 0.633119 0)
(11.5373 0.693439 0)
(11.6442 0.771604 0)
(11.6442 0.846515 0)
(11.764 0.949138 0)
(11.7667 1.03541 0)
(11.9007 1.17343 0)
(11.9081 1.28221 0)
(12.0384 1.45656 0)
(12.07 1.60838 0)
(12.1829 1.81893 0)
(12.2179 2.03976 0)
(12.3233 2.28609 0)
(12.3359 2.59656 0)
(12.4184 2.88631 0)
(12.384 3.28503 0)
(12.4203 3.63832 0)
(12.3017 4.10131 0)
(10.0002 -0.00656343 0)
(10.004 -0.0199431 0)
(10.0123 -0.0323375 0)
(10.0246 -0.0421902 0)
(10.0389 -0.0519044 0)
(10.0579 -0.0574353 0)
(10.076 -0.0631943 0)
(10.0987 -0.0657357 0)
(10.1186 -0.068173 0)
(10.1414 -0.0703142 0)
(10.1624 -0.0710295 0)
(10.1844 -0.0736607 0)
(10.2066 -0.0737066 0)
(10.2285 -0.0761217 0)
(10.2519 -0.0761391 0)
(10.2741 -0.0773422 0)
(10.2986 -0.0777645 0)
(10.321 -0.0771477 0)
(10.3465 -0.0785212 0)
(10.369 -0.0759683 0)
(10.3945 -0.0782271 0)
(10.4179 -0.0746108 0)
(10.4422 -0.0762967 0)
(10.4673 -0.0735157 0)
(10.4907 -0.0726091 0)
(10.5157 -0.0717501 0)
(10.5405 -0.0683518 0)
(10.5637 -0.0675915 0)
(10.5898 -0.0643992 0)
(10.6131 -0.0608445 0)
(10.637 -0.0596291 0)
(10.6639 -0.0530633 0)
(10.6836 -0.0519623 0)
(10.7136 -0.0451629 0)
(10.7313 -0.0411503 0)
(10.7622 -0.0359372 0)
(10.778 -0.0283112 0)
(10.8127 -0.0238994 0)
(10.822 -0.0136439 0)
(10.8643 -0.00869441 0)
(10.8671 0.00344482 0)
(10.9121 0.0102014 0)
(10.9164 0.0222158 0)
(10.9573 0.0348705 0)
(10.9668 0.0426636 0)
(11.0054 0.0645491 0)
(11.0156 0.0679397 0)
(11.0551 0.0966149 0)
(11.0688 0.101046 0)
(11.1031 0.131818 0)
(11.1277 0.141295 0)
(11.1546 0.172111 0)
(11.1862 0.190214 0)
(11.2157 0.216464 0)
(11.2471 0.250568 0)
(11.2803 0.26773 0)
(11.3208 0.317586 0)
(11.3469 0.336887 0)
(11.4034 0.386815 0)
(11.4287 0.424733 0)
(11.4884 0.471951 0)
(11.5269 0.520726 0)
(11.5879 0.583797 0)
(11.6369 0.636361 0)
(11.7005 0.712055 0)
(11.7745 0.789679 0)
(11.8231 0.870594 0)
(11.9354 0.972568 0)
(11.9751 1.08376 0)
(12.1124 1.21021 0)
(12.1524 1.35029 0)
(12.3108 1.53401 0)
(12.3559 1.70842 0)
(12.5048 1.95826 0)
(12.5757 2.19537 0)
(12.678 2.52403 0)
(12.7576 2.8453 0)
(12.7903 3.25024 0)
(12.8489 3.68754 0)
(12.7613 4.14139 0)
(10.0002 -0.00902098 0)
(10.0051 -0.028217 0)
(10.0149 -0.04457 0)
(10.0296 -0.057744 0)
(10.0458 -0.0701415 0)
(10.0679 -0.0757977 0)
(10.0872 -0.0835878 0)
(10.112 -0.084567 0)
(10.1323 -0.08941 0)
(10.1553 -0.0899272 0)
(10.1774 -0.0929561 0)
(10.1977 -0.0948901 0)
(10.2231 -0.0958153 0)
(10.2411 -0.0993956 0)
(10.2702 -0.0975486 0)
(10.2865 -0.102589 0)
(10.3186 -0.0982993 0)
(10.3334 -0.10355 0)
(10.3675 -0.0992649 0)
(10.3819 -0.101924 0)
(10.4154 -0.100712 0)
(10.4325 -0.0989738 0)
(10.4621 -0.100817 0)
(10.484 -0.0966754 0)
(10.51 -0.0979908 0)
(10.5338 -0.0949136 0)
(10.5606 -0.0935979 0)
(10.5816 -0.0909662 0)
(10.6121 -0.089714 0)
(10.6303 -0.0840045 0)
(10.6614 -0.0849544 0)
(10.6809 -0.0765475 0)
(10.7102 -0.076401 0)
(10.7298 -0.0694507 0)
(10.7615 -0.0652917 0)
(10.7765 -0.0591662 0)
(10.8122 -0.0545425 0)
(10.8263 -0.0442265 0)
(10.8577 -0.0423636 0)
(10.8808 -0.0273951 0)
(10.9015 -0.0259201 0)
(10.9334 -0.00911473 0)
(10.949 -0.00562254 0)
(10.984 0.0118626 0)
(10.9975 0.0198136 0)
(11.0374 0.033412 0)
(11.0453 0.0524523 0)
(11.0927 0.0570575 0)
(11.0975 0.0894141 0)
(11.1472 0.0888271 0)
(11.155 0.127123 0)
(11.2056 0.130589 0)
(11.2145 0.167679 0)
(11.2703 0.181036 0)
(11.2812 0.215089 0)
(11.3365 0.237006 0)
(11.361 0.274876 0)
(11.4105 0.299095 0)
(11.4427 0.344596 0)
(11.5092 0.377892 0)
(11.5235 0.42187 0)
(11.6261 0.471595 0)
(11.6272 0.523084 0)
(11.7464 0.576263 0)
(11.7592 0.646254 0)
(11.8911 0.717039 0)
(11.9078 0.788725 0)
(12.0639 0.890325 0)
(12.0975 0.989427 0)
(12.2609 1.10002 0)
(12.3173 1.25231 0)
(12.5104 1.39401 0)
(12.5636 1.60478 0)
(12.7782 1.79872 0)
(12.8538 2.10184 0)
(13.037 2.3604 0)
(13.1322 2.79843 0)
(13.2397 3.13133 0)
(13.3224 3.71689 0)
(13.3126 4.158 0)
(9.99955 -0.0129942 0)
(10.0075 -0.0383506 0)
(10.0193 -0.0606125 0)
(10.038 -0.0766289 0)
(10.0579 -0.0912684 0)
(10.0828 -0.0966867 0)
(10.1054 -0.105217 0)
(10.1303 -0.105439 0)
(10.1529 -0.111292 0)
(10.1744 -0.111531 0)
(10.1987 -0.115711 0)
(10.2169 -0.117817 0)
(10.2454 -0.119098 0)
(10.2609 -0.123501 0)
(10.294 -0.120486 0)
(10.3065 -0.127683 0)
(10.3441 -0.120668 0)
(10.3532 -0.129274 0)
(10.3944 -0.121783 0)
(10.4013 -0.127401 0)
(10.4435 -0.124416 0)
(10.4518 -0.123446 0)
(10.491 -0.125879 0)
(10.5037 -0.120452 0)
(10.5391 -0.123451 0)
(10.5542 -0.119102 0)
(10.5899 -0.118272 0)
(10.6031 -0.116284 0)
(10.641 -0.113307 0)
(10.6533 -0.11029 0)
(10.6898 -0.107686 0)
(10.705 -0.103493 0)
(10.7394 -0.0984384 0)
(10.7525 -0.0968896 0)
(10.7947 -0.0869135 0)
(10.7947 -0.0865186 0)
(10.8517 -0.076464 0)
(10.8392 -0.0710614 0)
(10.9029 -0.0642327 0)
(10.8897 -0.0552387 0)
(10.9507 -0.0456763 0)
(10.9407 -0.039905 0)
(10.9998 -0.0228078 0)
(10.9933 -0.0211577 0)
(11.0454 0.00271554 0)
(11.0535 0.000286593 0)
(11.0878 0.0334912 0)
(11.1157 0.0258029 0)
(11.1382 0.0642866 0)
(11.1744 0.0641479 0)
(11.1948 0.0884413 0)
(11.2401 0.118101 0)
(11.249 0.112849 0)
(11.3191 0.174061 0)
(11.306 0.156422 0)
(11.4006 0.218118 0)
(11.3848 0.22478 0)
(11.4751 0.261987 0)
(11.4856 0.297786 0)
(11.5648 0.331115 0)
(11.585 0.367418 0)
(11.6853 0.418429 0)
(11.7029 0.459063 0)
(11.8072 0.511669 0)
(11.863 0.574551 0)
(11.9565 0.631295 0)
(12.0275 0.717922 0)
(12.1622 0.766643 0)
(12.2342 0.918927 0)
(12.3875 0.940626 0)
(12.4986 1.16916 0)
(12.6808 1.19741 0)
(12.8004 1.50072 0)
(13.0293 1.57795 0)
(13.1588 1.95874 0)
(13.4202 2.1779 0)
(13.5011 2.61239 0)
(13.8207 3.07554 0)
(13.748 3.56245 0)
(14.0752 4.27187 0)
(9.99802 -0.0188924 0)
(10.0124 -0.0519756 0)
(10.0254 -0.0814194 0)
(10.0542 -0.0995513 0)
(10.075 -0.116259 0)
(10.1086 -0.12028 0)
(10.1292 -0.130219 0)
(10.1594 -0.128836 0)
(10.1792 -0.137865 0)
(10.2029 -0.136011 0)
(10.227 -0.144742 0)
(10.2438 -0.14313 0)
(10.2771 -0.149317 0)
(10.2857 -0.149369 0)
(10.3294 -0.15 0)
(10.329 -0.155014 0)
(10.3818 -0.148164 0)
(10.3741 -0.158954 0)
(10.432 -0.147316 0)
(10.4219 -0.158712 0)
(10.4785 -0.149407 0)
(10.4732 -0.154585 0)
(10.5222 -0.151722 0)
(10.5258 -0.150351 0)
(10.5665 -0.150523 0)
(10.5758 -0.147394 0)
(10.6136 -0.147088 0)
(10.6229 -0.1418 0)
(10.6611 -0.1453 0)
(10.6706 -0.131934 0)
(10.7057 -0.14254 0)
(10.7199 -0.123266 0)
(10.75 -0.13284 0)
(10.765 -0.118163 0)
(10.7993 -0.118874 0)
(10.8048 -0.109104 0)
(10.8499 -0.108075 0)
(10.8463 -0.0925573 0)
(10.8953 -0.0973186 0)
(10.8921 -0.0748875 0)
(10.9399 -0.0815376 0)
(10.9353 -0.0547655 0)
(10.9892 -0.0673644 0)
(10.9775 -0.0249706 0)
(11.038 -0.0547791 0)
(11.0254 0.00601701 0)
(11.0868 -0.0296746 0)
(11.0741 0.0273375 0)
(11.1442 0.00953808 0)
(11.1211 0.0467133 0)
(11.2082 0.0500552 0)
(11.1785 0.0805095 0)
(11.2667 0.0831518 0)
(11.2569 0.128764 0)
(11.3255 0.118789 0)
(11.3401 0.176583 0)
(11.414 0.173326 0)
(11.4092 0.219393 0)
(11.5362 0.239027 0)
(11.4943 0.278922 0)
(11.6512 0.302108 0)
(11.6323 0.357375 0)
(11.7682 0.38276 0)
(11.7882 0.433999 0)
(11.9298 0.495267 0)
(11.9801 0.532639 0)
(12.088 0.609336 0)
(12.2514 0.683228 0)
(12.2878 0.744529 0)
(12.5567 0.868419 0)
(12.5501 0.930306 0)
(12.957 1.12927 0)
(12.8664 1.17908 0)
(13.4297 1.49662 0)
(13.3106 1.58393 0)
(13.9494 2.01544 0)
(13.8439 2.29988 0)
(14.4473 2.8173 0)
(14.3493 3.49605 0)
(14.7635 4.06744 0)
(9.99387 -0.0270112 0)
(10.024 -0.0685803 0)
(10.0355 -0.100856 0)
(10.0831 -0.115868 0)
(10.1003 -0.128163 0)