/*--------------------------------*- C++ -*----------------------------------*\
| =========                 |                                                 |
| \\      /  F ield         | OpenFOAM: The Open Source CFD Toolbox           |
|  \\    /   O peration     | Version:  2306                                  |
|   \\  /    A nd           | Website:  www.openfoam.com                      |
|    \\/     M anipulation  |                                                 |
\*---------------------------------------------------------------------------*/
FoamFile
{
    version     2.0;
    format      ascii;
    arch        "LSB;label=32;scalar=64";
    class       volScalarField;
    location    "0.375";
    object      p;
}
// * * * * * * * * * * * * * * * * * * * * * * * * * * * * * * * * * * * * * //

dimensions      [0 2 -2 0 0 0 0];

internalField   nonuniform List<scalar> 
4400
(
360.252
359.237
358.33
357.657
357.208
356.901
356.657
356.428
356.195
355.954
355.708
355.46
355.213
354.968
354.723
354.48
354.237
353.993
353.749
353.505
353.261
353.016
352.772
352.529
352.287
352.046
351.808
351.571
351.338
351.109
350.883
350.662
350.447
350.237
350.034
349.838
349.65
349.471
349.301
349.141
348.992
348.854
348.728
348.615
348.514
348.426
348.351
348.29
348.242
348.207
348.184
348.171
348.167
348.17
348.176
348.182
348.182
348.171
348.143
348.089
348.005
347.884
347.727
347.546
347.39
347.307
347.368
347.648
348.181
348.932
349.81
350.526
350.816
350.596
350.471
350.334
350.653
350.811
350.693
350.812
358.79
358.448
358.015
357.574
357.182
356.858
356.59
356.354
356.131
355.906
355.675
355.438
355.197
354.954
354.711
354.468
354.226
353.983
353.741
353.498
353.255
353.011
352.768
352.526
352.285
352.044
351.806
351.57
351.338
351.108
350.882
350.662
350.446
350.236
350.032
349.836
349.647
349.466
349.295
349.133
348.981
348.841
348.712
348.595
348.49
348.399
348.32
348.255
348.202
348.163
348.135
348.117
348.109
348.106
348.109
348.11
348.107
348.094
348.064
348.011
347.926
347.81
347.656
347.485
347.327
347.252
347.333
347.667
348.299
349.229
350.339
351.284
351.343
350.533
350.071
349.767
349.859
350.359
350.573
350.837
358.244
358.079
357.821
357.503
357.169
356.855
356.574
356.324
356.095
355.873
355.65
355.421
355.186
354.946
354.704
354.462
354.219
353.977
353.735
353.493
353.25
353.008
352.766
352.524
352.283
352.044
351.805
351.57
351.337
351.107
350.881
350.659
350.442
350.231
350.025
349.826
349.634
349.45
349.274
349.107
348.949
348.802
348.664
348.537
348.421
348.317
348.224
348.143
348.072
348.013
347.963
347.923
347.89
347.862
347.838
347.812
347.784
347.745
347.696
347.627
347.542
347.437
347.321
347.21
347.14
347.174
347.358
347.736
348.304
349.046
349.826
350.402
350.593
350.427
350.424
350.495
350.787
351.465
350.925
350.064
357.829
357.729
357.555
357.322
357.056
356.784
356.522
356.276
356.046
355.826
355.606
355.384
355.156
354.923
354.686
354.446
354.205
353.964
353.723
353.482
353.241
352.999
352.758
352.517
352.277
352.038
351.799
351.564
351.33
351.1
350.873
350.65
350.431
350.217
350.008
349.805
349.609
349.419
349.238
349.063
348.897
348.739
348.591
348.451
348.321
348.201
348.09
347.989
347.896
347.814
347.737
347.67
347.605
347.546
347.487
347.427
347.364
347.293
347.216
347.125
347.03
346.926
346.832
346.759
346.74
346.803
346.978
347.273
347.69
348.198
348.743
349.219
349.574
349.786
349.898
349.946
349.931
349.903
349.691
349.961
357.529
357.46
357.335
357.161
356.949
356.717
356.478
356.244
356.017
355.796
355.578
355.358
355.134
354.905
354.672
354.435
354.197
353.956
353.716
353.475
353.234
352.993
352.752
352.511
352.271
352.031
351.793
351.557
351.322
351.091
350.862
350.636
350.415
350.198
349.986
349.778
349.577
349.381
349.193
349.009
348.835
348.667
348.507
348.354
348.209
348.072
347.942
347.822
347.706
347.599
347.495
347.399
347.301
347.21
347.114
347.02
346.918
346.814
346.702
346.586
346.467
346.35
346.249
346.17
346.141
346.161
346.268
346.441
346.712
347.041
347.42
347.805
348.14
348.417
348.57
348.708
348.811
349.086
349.517
350.112
357.311
357.259
357.162
357.023
356.849
356.648
356.433
356.211
355.99
355.771
355.553
355.334
355.112
354.887
354.656
354.422
354.186
353.947
353.708
353.467
353.226
352.984
352.744
352.502
352.262
352.022
351.782
351.546
351.309
351.077
350.845
350.618
350.393
350.173
349.956
349.745
349.537
349.336
349.139
348.948
348.764
348.585
348.414
348.246
348.088
347.933
347.788
347.644
347.508
347.375
347.246
347.119
346.992
346.867
346.736
346.608
346.469
346.33
346.182
346.034
345.885
345.738
345.607
345.491
345.411
345.367
345.375
345.439
345.564
345.741
345.966
346.205
346.447
346.653
346.846
347.034
347.3
347.702
348.278
348.955
357.152
357.109
357.029
356.911
356.761
356.584
356.388
356.179
355.966
355.749
355.532
355.314
355.093
354.869
354.641
354.409
354.175
353.938
353.699
353.458
353.217
352.976
352.734
352.492
352.251
352.01
351.77
351.532
351.294
351.059
350.825
350.595
350.367
350.143
349.921
349.705
349.491
349.284
349.08
348.88
348.687
348.496
348.314
348.132
347.961
347.789
347.626
347.461
347.305
347.147
346.993
346.837
346.682
346.524
346.362
346.197
346.025
345.849
345.663
345.482
345.287
345.109
344.92
344.762
344.603
344.487
344.391
344.34
344.33
344.356
344.424
344.508
344.622
344.726
344.881
345.045
345.348
345.715
346.319
347.032
357.04
357.003
356.931
356.828
356.693
356.532
356.349
356.152
355.945
355.732
355.516
355.298
355.078
354.855
354.628
354.398
354.164
353.929
353.69
353.449
353.208
352.966
352.724
352.481
352.239
351.996
351.756
351.515
351.276
351.038
350.802
350.568
350.337
350.107
349.883
349.659
349.441
349.226
349.014
348.807
348.603
348.403
348.208
348.015
347.827
347.64
347.459
347.276
347.099
346.916
346.74
346.556
346.373
346.184
345.99
345.792
345.583
345.374
345.147
344.927
344.687
344.458
344.217
343.988
343.76
343.552
343.352
343.184
343.032
342.913
342.814
342.748
342.696
342.687
342.711
342.808
342.991
343.313
343.802
344.508
356.968
356.934
356.868
356.772
356.646
356.495
356.322
356.132
355.93
355.719
355.505
355.287
355.067
354.844
354.618
354.388
354.156
353.92
353.681
353.441
353.198
352.956
352.713
352.469
352.225
351.981
351.739
351.496
351.255
351.014
350.775
350.538
350.303
350.069
349.84
349.61
349.387
349.163
348.945
348.728
348.515
348.305
348.098
347.893
347.69
347.49
347.288
347.091
346.888
346.69
346.484
346.28
346.064
345.852
345.622
345.394
345.151
344.898
344.639
344.366
344.087
343.795
343.5
343.193
342.89
342.582
342.279
341.981
341.696
341.414
341.157
340.911
340.692
340.512
340.369
340.32
340.328
340.525
340.831
341.421
356.932
356.9
356.837
356.744
356.622
356.476
356.307
356.121
355.921
355.712
355.498
355.28
355.06
354.836
354.61
354.381
354.149
353.913
353.673
353.432
353.189
352.946
352.701
352.456
352.21
351.965
351.721
351.475
351.231
350.988
350.745
350.505
350.265
350.027
349.793
349.557
349.329
349.096
348.872
348.646
348.424
348.203
347.984
347.768
347.549
347.337
347.115
346.905
346.678
346.463
346.232
346.005
345.763
345.521
345.264
345
344.726
344.431
344.136
343.811
343.485
343.133
342.775
342.39
342.007
341.594
341.183
340.755
340.324
339.88
339.447
339.01
338.591
338.204
337.856
337.572
337.395
337.33
337.463
337.781
356.93
356.9
356.836
356.743
356.621
356.474
356.305
356.119
355.919
355.71
355.496
355.277
355.057
354.832
354.607
354.376
354.144
353.906
353.666
353.423
353.18
352.936
352.688
352.443
352.194
351.947
351.701
351.452
351.207
350.959
350.714
350.469
350.224
349.983
349.742
349.502
349.266
349.028
348.794
348.562
348.329
348.1
347.868
347.64
347.409
347.181
346.946
346.716
346.473
346.236
345.986
345.732
345.47
345.198
344.911
344.62
344.306
343.977
343.64
343.266
342.89
342.479
342.05
341.595
341.117
340.61
340.073
339.523
338.927
338.321
337.695
337.042
336.404
335.754
335.163
334.593
334.141
333.795
333.63
333.669
356.963
356.932
356.867
356.769
356.642
356.491
356.318
356.127
355.924
355.713
355.498
355.279
355.057
354.832
354.606
354.374
354.141
353.9
353.66
353.415
353.171
352.925
352.675
352.429
352.177
351.929
351.68
351.427
351.18
350.927
350.68
350.431
350.181
349.937
349.688
349.445
349.2
348.956
348.715
348.474
348.232
347.994
347.751
347.51
347.27
347.024
346.777
346.531
346.268
346.017
345.742
345.469
345.182
344.884
344.57
344.248
343.898
343.536
343.154
342.736
342.306
341.84
341.338
340.812
340.242
339.631
338.981
338.285
337.538
336.744
335.913
335.027
334.119
333.2
332.273
331.381
330.582
329.867
329.348
329.037
357.033
357
356.928
356.822
356.687
356.525
356.343
356.143
355.936
355.722
355.505
355.284
355.061
354.836
354.608
354.375
354.139
353.896
353.654
353.407
353.162
352.914
352.663
352.414
352.16
351.911
351.656
351.403
351.151
350.895
350.645
350.39
350.137
349.886
349.633
349.383
349.133
348.882
348.634
348.384
348.134
347.886
347.633
347.383
347.127
346.871
346.609
346.347
346.07
345.799
345.508
345.21
344.908
344.576
344.243
343.89
343.502
343.114
342.685
342.222
341.751
341.211
340.659
340.045
339.398
338.67
337.919
337.07
336.159
335.188
334.119
332.98
331.78
330.525
329.216
327.949
326.664
325.551
324.537
323.78
357.144
357.104
357.023
356.904
356.754
356.575
356.378
356.167
355.953
355.736
355.516
355.295
355.07
354.844
354.613
354.378
354.138
353.893
353.65
353.4
353.155
352.902
352.651
352.399
352.142
351.892
351.631
351.378
351.12
350.862
350.608
350.347
350.092
349.834
349.576
349.322
349.062
348.808
348.549
348.294
348.033
347.779
347.514
347.254
346.99
346.715
346.449
346.163
345.878
345.589
345.275
344.966
344.639
344.281
343.934
343.541
343.131
342.709
342.237
341.734
341.22
340.616
340.006
339.326
338.577
337.767
336.889
335.905
334.829
333.666
332.344
330.953
329.385
327.789
326.018
324.222
322.491
320.692
319.146
317.814
357.302
357.251
357.153
357.014
356.839
356.637
356.42
356.197
355.975
355.754
355.532
355.31
355.083
354.856
354.62
354.383
354.138
353.892
353.646
353.394
353.148
352.89
352.64
352.382
352.126
351.87
351.608
351.351
351.088
350.828
350.568
350.304
350.044
349.781
349.517
349.257
348.992
348.73
348.465
348.202
347.934
347.669
347.397
347.125
346.853
346.565
346.288
345.99
345.687
345.39
345.049
344.733
344.381
344.001
343.642
343.207
342.783
342.326
341.808
341.286
340.707
340.069
339.387
338.652
337.805
336.929
335.904
334.82
333.568
332.207
330.673
328.916
327.096
324.939
322.732
320.345
317.823
315.428
312.953
310.899
357.52
357.45
357.325
357.15
356.938
356.703
356.463
356.227
355.999
355.776
355.553
355.33
355.1
354.87
354.628
354.389
354.138
353.893
353.642
353.39
353.141
352.879
352.63
352.365
352.112
351.847
351.586
351.323
351.057
350.794
350.527
350.261
349.994
349.726
349.459
349.189
348.922
348.651
348.381
348.111
347.832
347.565
347.277
347.004
346.716
346.419
346.136
345.813
345.514
345.191
344.837
344.516
344.125
343.746
343.362
342.894
342.461
341.97
341.404
340.88
340.225
339.559
338.834
338.015
337.118
336.136
335.042
333.774
332.458
330.827
329.098
327.082
324.771
322.286
319.316
316.265
312.984
309.357
305.999
302.764
357.819
357.717
357.544
357.31
357.044
356.769
356.505
356.257
356.026
355.802
355.578
355.352
355.117
354.883
354.635
354.394
354.137
353.893
353.637
353.386
353.132
352.87
352.617
352.349
352.094
351.823
351.562
351.291
351.026
350.755
350.487
350.214
349.943
349.671
349.396
349.123
348.847
348.571
348.292
348.019
347.726
347.462
347.152
346.885
346.577
346.275
345.991
345.639
345.353
344.997
344.638
344.314
343.875
343.519
343.084
342.613
342.163
341.626
341.06
340.484
339.808
339.091
338.333
337.448
336.501
335.441
334.218
332.952
331.342
329.691
327.715
325.313
322.868
319.599
316.113
312.205
307.643
302.807
297.808
293.016
358.234
358.066
357.809
357.489
357.156
356.838
356.556
356.302
356.073
355.846
355.62
355.385
355.144
354.901
354.649
354.403
354.144
353.898
353.638
353.388
353.126
352.867
352.605
352.339
352.076
351.805
351.54
351.262
350.999
350.715
350.452
350.166
349.896
349.615
349.337
349.056
348.779
348.489
348.215
347.923
347.634
347.358
347.039
346.775
346.443
346.151
345.847
345.491
345.207
344.813
344.48
344.111
343.678
343.305
342.848
342.364
341.912
341.311
340.777
340.131
339.445
338.707
337.874
337
335.974
334.812
333.61
332.16
330.489
328.71
326.522
323.935
321.128
317.431
313.258
308.405
302.373
295.435
288.162
281.051
358.779
358.434
358.002
357.56
357.168
356.84
356.57
356.331
356.107
355.877
355.643
355.4
355.152
354.906
354.652
354.405
354.145
353.898
353.636
353.384
353.12
352.859
352.592
352.327
352.056
351.787
351.514
351.237
350.967
350.681
350.414
350.122
349.85
349.561
349.282
348.99
348.716
348.411
348.141
347.833
347.548
347.26
346.936
346.672
346.317
346.04
345.702
345.349
345.069
344.634
344.349
343.927
343.515
343.145
342.634
342.2
341.694
341.103
340.556
339.872
339.188
338.393
337.517
336.67
335.506
334.369
333.17
331.595
329.699
328.213
325.19
323.148
319.621
315.786
311.021
305.589
297.406
288.041
276.717
264.333
360.238
359.225
358.317
357.644
357.193
356.883
356.636
356.404
356.169
355.925
355.674
355.421
355.166
354.917
354.662
354.413
354.155
353.903
353.643
353.384
353.122
352.856
352.591
352.321
352.05
351.779
351.501
351.228
350.947
350.669
350.387
350.105
349.821
349.537
349.25
348.962
348.678
348.381
348.098
347.799
347.506
347.212
346.902
346.611
346.29
345.984
345.657
345.328
344.993
344.625
344.282
343.866
343.499
343.045
342.603
342.13
341.592
341.068
340.458
339.768
339.155
338.191
337.551
336.372
335.477
334.167
333.059
331.199
329.795
327.687
325.214
322.791
319.379
315.009
310.577
303.986
295.461
283.678
268.04
243.083
351.165
351.551
351.918
352.224
352.338
352.275
352.067
351.762
351.38
350.909
350.427
349.946
349.115
348.099
347.441
347.457
348.328
349.969
351.719
353.941
351.364
351.607
351.919
352.271
352.452
352.393
352.162
351.828
351.489
351.081
350.342
349.442
348.377
347.266
346.549
346.452
347.223
348.864
350.347
352.255
350.019
350.94
352.044
352.58
352.727
352.63
352.419
352.034
351.496
350.767
349.688
348.333
346.981
345.775
344.851
344.446
344.895
346.585
347.958
349.371
351.128
352.236
351.992
352.262
353.386
353.208
352.921
352.339
351.621
350.529
349.005
347.176
345.521
344.326
343.501
343.145
343.311
344.893
346.372
347.605
350.853
351.279
352.337
354.628
354.76
353.696
353.575
352.697
351.808
350.267
348.159
345.93
344.183
343.263
342.676
342.492
342.818
344.437
345.554
346.567
349.828
350.932
352.552
354.063
355.078
356.136
355.29
353.168
351.778
349.757
347.469
345.266
343.398
342.684
342.436
342.703
343.011
344.716
345.223
346.126
348.075
349.351
350.928
352.479
353.979
354.827
354.808
353.94
352
349.304
347.027
344.961
343.243
342.369
341.748
341.88
342.532
344.113
345.492
346.865
345.47
346.7
348.141
349.682
351.17
352.236
352.695
352.193
350.824
348.697
346.121
344.018
342.548
342.52
343.072
344.106
345.084
346.007
346.827
348.706
342.196
343.254
344.513
345.906
347.276
348.483
349.138
349.117
348.299
346.767
344.914
342.991
340.757
339.279
338.456
338.64
339.623
341.442
343.929
347.504
338.356
339.178
340.203
341.454
342.703
343.87
344.834
345.33
345.324
344.794
343.695
342.702
343.008
344.523
345.486
347.23
350.463
352.897
354.788
357.808
333.965
334.526
335.351
336.365
337.623
338.865
340.055
341.153
342.159
343.704
346.455
350.303
351.929
343.672
331.85
331.101
340.961
348.464
353.06
356.946
328.998
329.278
329.887
330.806
331.97
333.433
335.088
336.878
338.621
340.086
340.623
339.609
336.466
332.27
333.954
339.384
345.918
352.618
359.376
364.929
323.39
323.282
323.672
324.546
325.798
327.508
329.515
331.864
334.405
336.73
338.366
339.345
340.293
341.828
345.525
350.617
355.088
357.445
359.746
360.462
316.832
316.415
316.466
317.263
318.788
320.825
323.36
326.042
328.696
331.437
334.363
337.588
341.109
344.196
347.18
350.991
355.368
359.66
361.722
363.031
309.228
308.148
308.032
308.663
310.329
313.271
316.981
321.043
324.836
327.937
330.551
334.05
338.693
343.412
348.695
354.56
360.118
363.448
364.112
364.409
299.999
298.172
297.684
298.696
300.574
303.457
307.86
312.739
317.865
323.149
328.312
333.233
338.116
343.543
349.539
355.824
361.172
364.162
364.941
365.272
288.604
285.444
284.286
285.68
290.065
295.673
300.981
305.857
310.365
315.477
322.059
328.902
335.504
341.848
348.206
354.443
359.726
363.315
365.168
365.958
273.928
269.42
267.501
268.124
272.72
280.924
290.262
298.797
305.615
311.107
316.86
323.437
330.887
338.017
344.631
350.978
357.2
361.983
364.422
365.42
252.258
246.562
247.15
252.234
259.667
267.961
277.066
287.279
296.863
304.862
311.753
318.812
326.237
333.333
339.895
346.428
353.174
358.307
361.234
362.694
215.653
206.359
208.528
221.426
239.577
256.724
269.661
278.719
286.779
295.304
304.395
313.115
320.861
327.743
334.507
341.213
347.617
352.862
356.491
358.607
180.522
172.225
173.349
184.305
207.34
235.564
257.699
270.854
278.354
285.693
295.176
304.941
313.519
320.795
327.593
334.341
340.87
346.475
350.445
352.536
176.239
166.015
159.407
160.625
185.406
216.812
244.452
261.87
269.912
277.02
286.636
296.894
305.526
312.807
319.808
326.528
332.761
338.204
342.084
344.038
171.331
163.472
147.014
149.44
176.145
208.068
233.467
250.178
260.449
268.974
278.324
287.936
296.26
303.835
311.076
317.532
323.365
328.531
332.299
334.509
174.861
166.574
153.525
157.415
184.957
217.292
232.192
240.341
248.004
257.975
268.906
278.627
286.503
293.976
301.338
307.742
313.258
318.216
321.968
324.089
181.204
173.652
165.747
172.732
193.102
221.47
239.237
236.764
238.331
246.32
257.312
267.752
275.935
283.431
290.818
297.222
302.533
307.279
310.708
312.326
189.184
180.589
180.72
187.11
196.632
211.082
234.088
231.855
228.066
232.917
244.286
255.658
264.244
271.881
279.297
285.815
291.139
295.547
298.565
300.009
180.87
177.24
179.225
189.001
195.039
198.05
212.318
216.874
209.88
214.361
227.934
241.33
251.143
259.427
267.233
273.846
279.018
283.169
286.098
287.678
173.269
170.633
172.143
180.338
187.934
188.215
191.858
189.973
184.137
190.828
208.116
224.668
236.49
245.837
254.249
261.034
266.209
270.455
273.492
275.053
168.213
166.366
168.651
173.53
176.83
176.363
172.913
160.897
157.198
165.718
186.236
205.944
220.459
231.462
240.741
248.031
253.621
258.054
261.035
262.195
165.335
163.912
164.31
166.605
166.481
164.16
156.258
144.394
135.62
141.918
164.591
187.289
204.433
217.296
227.471
235.082
240.846
245.272
248.099
249.246
162.963
161.518
161.157
161.238
158.994
154.551
144.572
131.056
119.377
126.165
148.624
171.693
190.059
204.023
214.502
222.377
228.334
232.756
235.594
236.964
160.448
159.61
159.614
157.775
154.327
148.421
139.658
125.754
113.109
120.553
140.415
161.919
179.583
192.854
202.916
210.696
216.663
221.058
224.005
225.173
157.808
157.801
157.401
155.138
151.234
145.439
139.013
130.011
119.873
125.095
140.101
158.316
173.452
184.594
193.223
200.255
205.92
210.207
212.81
213.913
154.52
155.053
154.684
152.654
149.349
145.235
141.691
136.393
132.409
136.223
146.272
159.011
169.99
178.55
185.76
191.778
196.729
200.456
202.791
203.686
150.82
151.287
151.392
150.126
148.133
146.524
145.96
144.32
145.345
147.632
153.432
161.137
168.357
174.435
179.806
184.286
188.105
191.107
193.056
193.921
146.967
147.085
147.554
147.303
147.167
148.203
149.867
151.802
156.115
155.742
158.335
162.237
166.472
170.522
174.234
177.581
180.689
182.986
184.322
185.328
142.984
142.747
143.407
144.257
145.504
148.225
151.317
155.789
160.91
159.98
160.241
161.342
163.195
165.763
168.634
171.378
173.667
175.424
176.675
177.103
138.958
138.612
139.163
140.744
142.676
145.714
148.999
154.984
159.466
159.554
158.758
158.113
158.375
159.867
161.925
164.289
166.537
168.084
168.809
169.423
134.948
134.811
134.687
136.408
138.553
140.986
143.711
149.668
153.254
153.992
153.362
152.268
152.181
153.47
155.424
157.517
159.355
160.835
161.746
162.213
131.029
131.485
129.714
130.814
132.766
134.329
136.484
140.907
143.038
144.469
144.554
144.112
144.884
146.702
148.578
150.337
152.106
153.591
154.497
155.009
127.386
128.614
125.085
124.262
125.097
125.474
126.972
129.368
130.094
132.15
133.508
134.584
136.439
138.725
140.962
143.277
145.52
147.104
147.824
148.676
124.519
125.702
121.212
117.433
116.077
114.756
114.786
115.361
115.416
117.88
120.517
123.591
127.325
130.917
133.922
136.653
139.024
140.857
142.175
142.632
120.888
120.705
116.319
110.267
106.431
103.151
100.924
99.4655
99.5267
102.86
107.313
112.5
117.748
122.409
126.409
130.058
133.087
135.256
136.417
137.345
115.686
112.566
109.363
102.814
97.1898
92.0955
87.4248
83.2785
83.1136
87.4021
94.1003
101.632
108.689
114.946
120.266
124.531
127.673
130.165
132.03
132.838
110.354
104.931
102.146
96.3402
89.3772
82.688
76.024
69.7074
68.9753
73.7887
82.0484
91.8147
100.717
108.318
114.614
119.299
122.841
125.933
128.022
128.659
106.731
102.525
97.1403
91.3778
83.6043
75.4754
67.3555
60.1736
58.9928
63.7569
73.2214
84.1094
93.9323
102.595
109.817
115.011
119.117
122.582
124.423
125.836
104.996
102.246
94.8663
87.7544
79.9371
71.1528
62.0601
54.6341
53.4861
57.5349
67.6488
78.8626
89.8111
99.3909
106.617
111.825
116.094
119.797
122.526
123.274
102.833
99.9295
93.551
86.3387
78.9055
70.5167
61.1163
53.5728
52.9521
55.6535
66.2883
76.1107
87.0984
96.4757
103.674
109.507
114.536
118.215
120.289
121.723
100.099
97.2089
93.589
88.0653
81.3611
73.924
64.4556
57.7538
56.0265
58.636
67.608
77.0804
86.9491
95.6058
103.044
109.098
113.695
117.143
119.765
121.129
99.8774
98.4345
95.6264
91.4504
85.9469
79.5757
71.2627
65.5705
63.3085
64.9442
72.2832
80.7749
89.4939
97.184
103.665
108.919
113.282
116.843
119.523
120.598
102.506
101.303
98.7885
95.6434
91.7477
86.8296
80.3213
75.5095
72.9107
74.0275
79.7153
86.2432
93.4386
99.9498
105.592
110.326
114.243
117.376
119.683
121.314
104.917
104.076
103.108
101.404
98.7842
95.224
90.3802
86.311
83.1837
83.7305
87.6353
92.215
98.2303
103.785
108.473
112.062
115.12
118.304
121.174
121.818
107.941
107.847
107.601
107.107
105.95
103.841
100.589
97.0103
93.8176
93.7514
95.5916
98.2437
102.768
107.133
110.782
113.755
116.785
119.75
121.697
122.731
111.806
111.62
111.443
111.861
112.174
111.644
109.711
106.511
103.478
103.108
103.126
104.379
107.781
111.175
113.852
116.161
118.583
120.908
122.813
123.879
114.566
114.728
115.318
116.469
117.636
118.379
117.683
115.077
112.117
111.145
110.115
111.016
113.542
115.482
116.899
118.424
120.067
121.925
123.735
124.146
116.997
117.258
118.018
119.682
121.649
123.614
124.146
122.341
119.775
118.039
116.381
116.76
118.05
118.724
119.689
120.958
122.28
123.05
123.749
124.814
118.829
119.039
119.935
121.83
124.329
127.327
129.05
128.284
126.323
123.899
122.176
122.332
122.624
122.701
123.414
123.817
123.881
124.043
124.815
125.082
119.699
119.988
121.034
122.966
125.726
129.366
132.157
132.489
131.512
129.219
127.45
126.888
126.298
125.811
125.679
125.566
125.455
125.091
124.886
124.98
120.085
120.247
121.13
122.985
125.861
129.902
133.971
135.386
135.227
133.201
131.667
130.544
129.274
128.574
128.401
128.111
127.641
126.579
125.597
126.037
119.84
119.999
120.811
122.52
125.404
129.689
133.91
136.608
137.453
136.188
134.774
133.312
132.149
131.409
130.744
130.024
128.889
127.95
127.48
126.889
119.247
119.307
119.807
121.33
124.133
128.203
132.581
136.27
137.768
137.192
136.243
134.937
133.625
132.819
132.133
131.632
131.153
130.001
128.466
128.399
118.176
118.144
118.418
119.617
121.999
125.617
129.666
134.875
136.829
137.062
136.416
135.355
134.568
134.399
134.316
133.923
133.321
132.493
131.361
131.455
117.054
116.745
116.617
117.374
119.316
122.385
126.444
131.251
134.082
135.355
135.489
135.227
135.109
135.399
135.615
135.535
134.904
134.482
134.683
133.927
116.088
115.444
114.787
114.808
116.081
118.506
122.506
126.968
130.525
132.88
134.039
134.529
135.083
135.849
136.331
136.819
137.852
137.907
136.864
137.345
115.167
114.286
113.131
112.28
112.461
113.976
117.193
121.49
126.657
129.962
131.987
133.468
134.975
136.735
138.558
139.667
140.136
140.729
141.267
141.702
114.798
113.634
111.871
110.192
109.484
109.936
112.723
116.957
122.678
127.415
130.658
133.608
136.353
138.29
139.653
140.924
142.116
143.3
144.9
144.554
115.817
114.247
111.711
109.148
107.548
107.229
109.514
113.951
120.301
125.676
129.839
133.502
136.348
138.791
141.048
143.347
146.218
147.9
147.992
148.82
118.319
116.345
113.292
109.946
107.542
106.704
108.185
112.48
119.055
125.14
130.323
134.901
138.587
141.765
144.824
146.843
148.114
150.339
152.216
153.351
122.186
120.038
116.664
112.768
109.789
108.041
109.174
113.236
119.77
126.293
132.208
137.034
140.725
143.415
145.482
148.11
150.803
152.87
156.043
156.025
127.791
125.582
121.994
117.792
114.404
112.025
112.472
116.329
122.636
128.945
134.639
139.295
143.059
146.474
149.292
151.308
154.896
157.987
159.417
160.068
135.46
133.148
129.459
125.183
121.517
119.06
118.922
122.151
127.767
133.389
138.914
143.49
147.178
150.165
152.648
154.537
155.588
158.216
160.884
163.101
144.77
142.577
139.029
134.945
131.229
128.362
127.972
130.478
134.927
139.538
144.377
148.279
151.293
153.288
154.356
155.493
156.937
159.006
163.872
164.783
155.269
153.302
150.018
146.218
142.916
140.184
139.294
140.793
143.705
147.112
150.939
153.441
155.29
156.815
157.729
158.299
160.466
162.681
165.451
164.92
167.064
165.051
161.909
158.344
155.265
152.904
151.684
152.096
153.638
155.922
158.352
159.836
160.543
160.85
161.936
162.277
159.889
157.314
154.584
157.631
179.866
177.844
174.896
171.723
168.825
166.243
164.517
163.989
164.213
165.447
166.638
166.899
166.633
164.724
161.782
160.821
159.223
152.721
143.205
150.633
193.099
191.335
188.648
185.556
182.619
179.911
177.661
176.145
175.306
175.336
174.815
173.265
171.205
168.868
165.808
161.439
161.136
161.097
147.721
153.018
206.697
204.992
202.387
199.314
196.379
193.524
190.862
188.677
186.667
185.301
183.472
180.635
177.635
174.794
172.236
167.855
162.739
166.471
159.334
156.45
220.228
218.625
216.204
213.395
210.495
207.483
204.365
201.359
198.576
196.032
192.819
188.875
184.524
180.221
176.462
172.256
165.584
164.472
166.548
158.377
233.477
232.116
230.088
227.552
224.694
221.534
217.869
214.324
210.678
206.712
201.748
196.051
190.377
184.657
178.778
174.137
169.981
162.606
167.274
160.892
246.447
245.238
243.516
241.316
238.733
235.64
231.578
226.999
222.325
216.956
210.299
202.919
195.511
188.72
182.173
175.115
170.431
165.736
164.186
162.263
258.322
257.446
256.236
254.643
252.526
249.647
245.145
239.604
233.656
226.948
218.644
209.938
201.435
192.619
183.958
176.745
169.411
166.434
159.784
160.161
268.973
268.416
267.811
266.879
265.401
262.794
258.276
252.015
244.435
236.385
227.33
217.506
206.961
196.388
186.191
176.909
167.001
161.69
157.449
157.072
278.573
278.146
277.937
277.553
276.84
274.647
270.314
263.558
255.015
245.632
235.175
224.419
212.631
199.381
186.907
175.478
166.169
158.101
152.526
151.013
287.027
286.609
286.563
286.635
286.825
284.893
280.841
274.375
264.667
253.862
242.751
230.629
217.048
201.971
187.928
174.311
162.935
154.699
149.526
145.327
294.388
294.044
294.07
294.562
295.506
293.656
290.564
283.737
273.412
261.81
249.609
236.898
222.048
204.278
187.49
172.198
159.206
147.488
138.367
133.606
300.439
300.389
300.779
302.121
302.872
301.719
299.075
291.935
281.804
269.681
257.024
242.94
226.375
207.396
187.385
167.762
148.354
130.585
118.061
115.114
305.102
305.45
306.421
308.362
308.682
308.937
305.94
299.033
289.403
277.662
264.155
249.044
231.025
209.572
185.583
162.279
140.056
117.641
100.897
98.2321
308.61
309.191
310.603
312.258
313.711
313.973
311.1
305.727
296.25
284.425
271.629
255.905
236.12
212.686
186.214
159.385
131.33
103.684
83.1445
68.7843
311.21
311.885
313.294
314.976
317.344
316.31
315.399
310.818
302.429
290.877
278.234
263.774
244.583
218.817
188.821
159.53
127.096
87.7189
50.9378
45.4142
313.127
313.782
315.033
316.967
318.293
318.771
317.984
314.184
307.538
297.421
285.56
271.562
253.806
229.091
196.765
161.173
123.251
80.7191
36.9278
-3.22474
314.409
315.011
315.91
317.772
318.964
319.735
318.649
316.117
311.277
303.573
292.917
279.915
263.37
240.401
208.292
171.299
128.955
75.6023
21.9241
-45.9827
315.255
315.597
316.265
317.666
318.625
318.64
318.325
316.68
313.421
308.589
299.986
288.283
273.165
253.489
223.261
185.115
143.74
91.3658
25.3417
-34.8289
315.819
315.793
316.11
316.814
317.394
317.294
316.977
316.263
314.935
312.043
306.303
297.869
283.851
265.383
239.14
204.391
162.83
119.413
61.9362
7.39079
316.003
315.497
315.265
315.265
315.634
315.5
315.468
315.949
316.399
315.554
312.445
306.236
296.432
276.843
252.116
225.256
187.526
147.607
109.367
65.2775
315.481
314.51
313.576
312.612
311.547
311.979
312.983
314.847
316.755
317.58
320.883
312.727
307.439
286.536
263.796
245.05
217.15
178.765
145.023
111.968
314.269
313.008
311.828
310.206
308.871
309.091
310.541
314.679
316.871
318.195
326.443
318.078
317.213
290.682
276.021
261.748
241.909
208.942
173.694
143.088
314.537
312.236
310.58
307.43
305.082
305.58
308.682
314.904
315.525
323.608
331.422
318.784
303.401
287.37
289.296
273.214
254.908
229.792
197.185
165.795
317.938
316.107
313.629
310.275
308.063
307.819
310.572
317.413
314.019
325.424
313.331
297.125
290.173
305.022
304.193
283.269
262.652
241.237
212.879
182.226
317.907
316.163
314.68
312.051
310.67
310.955
312.078
318.135
311.244
324.527
278.722
316.489
326.632
320.587
311.175
291.508
268.758
247.286
222.343
193.103
322.485
319.579
316.909
314.08
312.535
312.939
315.787
325.837
317.936
332.149
321.997
359.232
330.721
318.575
310.936
293.887
271.483
249.738
226.372
198.18
-129.488
-111.3
-114.848
-46.7223
-96.7473
-71.4743
-64.0282
-60.6311
-63.0771
-67.8746
-81.1117
-98.36
-110.109
-120.823
-131.579
-145.945
-164.94
-188.671
-216.266
-244.642
-270.514
-291.413
-305.791
-311.419
-308.68
-298.766
-284.104
-265.435
-244.084
-221.071
-199.117
-179.357
-160.023
-143.266
-127.947
-112.758
-99.9026
-86.9452
-73.556
-60.5161
-47.6648
-34.3265
-22.0184
-10.0741
0.862859
9.46255
16.6742
21.997
25.7029
27.8777
28.4527
28.0367
26.3874
24.2075
21.4615
17.7003
13.7509
9.09872
4.36798
0.274165
-4.24526
-7.81284
-11.386
-14.5848
-16.2387
-17.6813
-17.8617
-16.9076
-15.6081
-13.8604
-11.7648
-9.55145
-7.31347
-5.13387
-3.06618
-1.60036