/*--------------------------------*- C++ -*----------------------------------*\
| =========                 |                                                 |
| \\      /  F ield         | OpenFOAM: The Open Source CFD Toolbox           |
|  \\    /   O peration     | Version:  2306                                  |
|   \\  /    A nd           | Website:  www.openfoam.com                      |
|    \\/     M anipulation  |                                                 |
\*---------------------------------------------------------------------------*/
FoamFile
{
    version     2.0;
    format      ascii;
    arch        "LSB;label=32;scalar=64";
    class       surfaceScalarField;
    location    "0.375";
    object      phi;
}
// * * * * * * * * * * * * * * * * * * * * * * * * * * * * * * * * * * * * * //

dimensions      [0 3 -1 0 0 0 0];

oriented        oriented;

internalField   nonuniform List<scalar> 
8520
(
0.0099278
7.2203e-05
0.00978964
0.000138161
0.0096295
0.000160136
0.00946828
0.000161221
0.00930946
0.000158823
0.00914915
0.000160307
0.0089864
0.000162749
0.00882095
0.000165454
0.00865373
0.000167219
0.0084856
0.000168122
0.00831791
0.000167693
0.00815107
0.000166844
0.00798557
0.000165495
0.00782133
0.000164244
0.00765851
0.000162821
0.00749711
0.000161398
0.00733717
0.000159939
0.00717888
0.000158292
0.00702218
0.000156699
0.00686735
0.00015483
0.00671432
0.000153033
0.00656326
0.000151055
0.0064142
0.000149058
0.0062672
0.000147005
0.00612235
0.000144851
0.0059796
0.000142742
0.00583913
0.00014048
0.00570074
0.000138381
0.00556472
0.000136022
0.00543076
0.000133962
0.00529921
0.000131554
0.00516964
0.000129566
0.00504233
0.000127311
0.00491688
0.000125454
0.00479347
0.000123408
0.00467163
0.000121836
0.00455155
0.000120085
0.0044326
0.000118945
0.00431493
0.000117669
0.00419783
0.000117099
0.00408133
0.0001165
0.0039647
0.000116628
0.00384784
0.000116868
0.00372994
0.000117893
0.0036107
0.000119239
0.0034893
0.000121407
0.00336517
0.000124126
0.00323743
0.00012774
0.00310536
0.00013207
0.00296787
0.00013749
0.00282425
0.000143626
0.00267305
0.000151191
0.00251376
0.000159294
0.0023445
0.000169256
0.00216512
0.000179388
0.00197339
0.000191727
0.00176968
0.000203708
0.00155174
0.000217937
0.00132072
0.00023102
0.00107485
0.000245878
0.000816755
0.000258092
0.000546176
0.000270579
0.000270845
0.000275331
1.43869e-06
0.000269406
-0.0002432
0.000244639
-0.000453674
0.000210474
-0.000603729
0.000150055
-0.000679039
7.53102e-05
-0.000656656
-2.23831e-05
-0.000532707
-0.000123949
-0.000298686
-0.000234021
-1.21969e-05
-0.000286489
0.000232674
-0.000244871
0.000335916
-0.000103242
2.18452e-05
0.00031407
-0.000494341
0.000516186
-0.000391424
-0.000102918
-5.96634e-05
-0.00033176
-3.31947e-05
-2.64687e-05
0.000134407
-0.000167602
0.0100357
3.65401e-05
0.0100799
9.39306e-05
0.0101108
0.000129243
0.0101273
0.000144723
0.0101357
0.000150381
0.0101431
0.000152894
0.0101493
0.000156552
0.0101532
0.000161573
0.0101537
0.000166778
0.0101502
0.000171569
0.010143
0.000174865
0.0101323
0.000177537
0.0101189
0.00017897
0.0101027
0.000180378
0.0100844
0.000181188
0.0100637
0.000182027
0.0100408
0.000182833
0.010016
0.000183163
0.00998874
0.000183939
0.0099598
0.000183763
0.00992851
0.000184324
0.0098957
0.000183865
0.00986067
0.00018409
0.00982419
0.000183482
0.00978568
0.000183363
0.00974569
0.000182731
0.00970391
0.000182264
0.0096605
0.00018179
0.0096156
0.000180923
0.00956887
0.000180688
0.00952082
0.000179609
0.00947083
0.000179555
0.00941951
0.000178633
0.00936622
0.000178736
0.00931148
0.000178151
0.00925465
0.000178672
0.00919621
0.000178521
0.00913544
0.000179714
0.00907284
0.000180275
0.00900756
0.000182378
0.00893992
0.000184142
0.00886924
0.0001873
0.00879563
0.000190483
0.00871849
0.000195035
0.00863745
0.000200275
0.00855237
0.00020649
0.00846205
0.000214442
0.00836703
0.000222764
0.00826515
0.000233947
0.00815753
0.000245109
0.00804128
0.000259879
0.00791773
0.000274745
0.00778363
0.000293389
0.0076401
0.000312789
0.00748396
0.000335526
0.00731582
0.000359867
0.00713272
0.000386814
0.00693506
0.00041559
0.00671984
0.000446246
0.00648833
0.000477386
0.00623711
0.00050931
0.00596991
0.000537782
0.00568115
0.000564084
0.00537243
0.000578128
0.00504128
0.000575796
0.00468461
0.000567143
0.00428295
0.000551712
0.00383301
0.000525253
0.00330694
0.000503682
0.00268804
0.000494956
0.00192355
0.000530462
0.001051
0.000586067
0.000197441
0.000608686
-0.000379087
0.000473286
-0.000520606
0.000455589
-0.000350737
0.000346318
-0.000406035
-4.76201e-05
-0.000551426
-0.000186369
-0.000522762
-5.51324e-05
5.55156e-05
-0.000443871
0.0100141
2.24017e-05
0.0100441
6.39559e-05
0.0100777
9.56269e-05
0.0101074
0.000115018
0.0101313
0.000126517
0.0101523
0.000131897
0.010173
0.000135857
0.010195
0.000139525
0.0102179
0.000143894
0.0102408
0.000148709
0.0102631
0.0001525
0.0102842
0.000156519
0.0103045
0.000158597
0.0103235
0.000161386
0.0103424
0.000162348
0.01036
0.000164382
0.0103776
0.000165262
0.0103941
0.000166692
0.0104102
0.000167836
0.0104253
0.000168643
0.0104396
0.000169966
0.0104532
0.000170335
0.0104656
0.000171635
0.0104774
0.000171714
0.0104878
0.000172945
0.0104976
0.000172906
0.0105059
0.000174016
0.0105135
0.000174125
0.0105195
0.000174949
0.0105247
0.000175462
0.0105283
0.00017608
0.0105308
0.000177023
0.0105317
0.00017775
0.0105313
0.00017914
0.0105293
0.000180164
0.0105256
0.000182315
0.0105204
0.00018375
0.0105132
0.000186948
0.0105043
0.000189184
0.0104931
0.000193549
0.0104801
0.000197142
0.0104645
0.00020285
0.0104468
0.000208237
0.0104262
0.000215668
0.0104029
0.000223526
0.0103764
0.00023298
0.0103466
0.000244219
0.0103133
0.000256059
0.0102757
0.000271547
0.0102344
0.000286494
0.0101874
0.000306791
0.0101362
0.000325984
0.0100783
0.000351308
0.0100149
0.000376194
0.00994395
0.000406459
0.0098656
0.000438217
0.00977921
0.0004732
0.00968276
0.000512036
0.0095781
0.000550909
0.00946002
0.00059547
0.0093336
0.000635726
0.00918932
0.000682065
0.00903482
0.00071858
0.00885445
0.000758499
0.00864678
0.000783469
0.00840019
0.000813733
0.00811448
0.000837427
0.00777585
0.000863882
0.00738358
0.000895949
0.00693967
0.000938861
0.00645939
0.00101075
0.00596424
0.00108121
0.00540733
0.0011656
0.00468284
0.00119777
0.00393675
0.00120168
0.00310572
0.00117735
0.0020008
0.00105729
0.000785848
0.00102859
-3.10347e-05
0.00076175
0.000358613
-0.000334132
0.010007
1.53788e-05
0.0100268
4.4195e-05
0.0100519
7.04932e-05
0.010077
8.99042e-05
0.0101003
0.000103224
0.0101223
0.000109887
0.0101431
0.000115095
0.0101643
0.000118347
0.0101863
0.000121844
0.0102095
0.000125499
0.0102332
0.000128878
0.0102569
0.000132773
0.0102805
0.000134994
0.0103037
0.000138159
0.010327
0.000139051
0.0103498
0.000141561
0.0103731
0.000142014
0.0103959
0.000143936
0.010419
0.000144656
0.0104418
0.000145913
0.0104646
0.000147169
0.0104871
0.000147788
0.0105093
0.000149443
0.0105315
0.000149542
0.0105529
0.000151526
0.0105745
0.000151293
0.010595
0.000153551
0.0106158
0.000153254
0.0106352
0.000155577
0.010655
0.000155639
0.0106732
0.000157897
0.0106916
0.0001586
0.0107085
0.000160859
0.0107252
0.000162433
0.0107407
0.00016473
0.0107553
0.000167662
0.0107692
0.000169908
0.0107814
0.000174714
0.0107934
0.000177138
0.010803
0.000183979
0.010813
0.000187193
0.0108197
0.000196093
0.0108271
0.000200831
0.0108308
0.000211989
0.0108353
0.000219065
0.0108356
0.000232658
0.0108366
0.000243184
0.0108334
0.000259295
0.0108303
0.000274606
0.0108234
0.000293406
0.0108155
0.000314753
0.0108047
0.000336785
0.0107911
0.000364848
0.0107758
0.000391511
0.0107563
0.000425957
0.0107354
0.000459101
0.0107095
0.000499103
0.0106819
0.000539638
0.0106483
0.000584555
0.0106123
0.000631424
0.0105677
0.000680372
0.010519
0.000730776
0.0104558
0.000781703
0.0103812
0.00083316
0.0102801
0.000884533
0.0101569
0.00093695
0.0100032
0.000991126
0.00981748
0.00104959
0.00959616
0.00111727
0.00934104
0.00119398
0.00906497
0.00128681
0.0087535
0.00139268
0.00840544
0.00151366
0.00796974
0.00163348
0.00746903
0.00170239
0.00688197
0.00176442
0.00621341
0.00172585
0.00553648
0.00170552
0.00462124
0.00167699
0.00151386
0.00346599
0.0100045
1.09033e-05
0.0100166
3.2055e-05
0.0100351
5.20181e-05
0.0100564
6.86288e-05
0.010078
8.15527e-05
0.010099
8.89e-05
0.0101192
9.49411e-05
0.0101398
9.77041e-05
0.0101605
0.00010115
0.0101827
0.000103291
0.0102049
0.00010675
0.0102283
0.000109313
0.0102512
0.000112133
0.0102749
0.000114397
0.0102979
0.000116101
0.0103214
0.000117997
0.0103446
0.000118877
0.0103681
0.000120452
0.0103915
0.000121192
0.010415
0.000122458
0.0104386
0.000123564
0.0104619
0.000124433
0.0104855
0.0001259
0.0105086
0.000126421
0.0105319
0.000128241
0.0105547
0.000128516
0.0105775
0.000130737
0.0105999
0.000130865
0.010622
0.000133435
0.0106439
0.000133808
0.0106652
0.000136536
0.0106862
0.000137585
0.0107067
0.000140377
0.0107267
0.000142437
0.0107461
0.000145309
0.0107649
0.000148904
0.0107832
0.000151588
0.0108003
0.000157581
0.0108177
0.000159803
0.0108328
0.000168809
0.0108491
0.000170934
0.0108622
0.000182957
0.0108771
0.000185975
0.0108882
0.000200835
0.0109014
0.000205889
0.0109106
0.00022346
0.0109219
0.000231911
0.0109293
0.000251915
0.0109384
0.000265505
0.0109443
0.000287507
0.0109509
0.000308141
0.0109558
0.000331839
0.0109595
0.000361144
0.0109643
0.00038673
0.0109648
0.000425505
0.0109699
0.000453958
0.0109673
0.000501713
0.0109722
0.00053472
0.0109671
0.000589652
0.0109695
0.000629024
0.0109608
0.000689085
0.0109561
0.000735521
0.0109377
0.000800034
0.010917
0.000853858
0.0108797
0.000921831
0.0108309
0.000985797
0.0107652
0.0010568
0.0106761
0.00113874
0.0105737
0.00121966
0.0104405
0.00132717
0.0102986
0.00142868
0.0101201
0.00157124
0.0099356
0.00169814
0.00971339
0.00185568
0.00944446
0.00197133
0.00911735
0.00209152
0.00868193
0.00216128
0.00814822
0.00223922
0.00749649
0.00232872
0.00228898
0.00672137
0.0100031
7.79862e-06
0.0100118
2.33858e-05
0.0100256
3.82e-05
0.0100431
5.11404e-05
0.0100624
6.21897e-05
0.0100824
6.89608e-05
0.0101023
7.50184e-05
0.0101224
7.75641e-05
0.0101426
8.09899e-05
0.0101637
8.21995e-05
0.0101852
8.52452e-05
0.0102078
8.6757e-05
0.0102302
8.96498e-05
0.0102535
9.1162e-05
0.0102764
9.32098e-05
0.0102996
9.47427e-05
0.0103229
9.56299e-05
0.0103459
9.73876e-05
0.0103697
9.7433e-05
0.0103925
9.96535e-05
0.0104167
9.93775e-05
0.0104392
0.000101884
0.0104636
0.000101551
0.0104859
0.000104105
0.0105101
0.000104079
0.0105322
0.000106378
0.0105558
0.000107088
0.0105779
0.000108823
0.0106007
0.000110585
0.0106226
0.000111924
0.0106445
0.000114623
0.0106661
0.000116053
0.0106869
0.000119496
0.010708
0.000121381
0.0107276
0.000125714
0.0107482
0.000128316
0.0107663
0.000133476
0.0107862
0.000137647
0.010803
0.000143012
0.0108218
0.000150034
0.0108376
0.000155131
0.0108548
0.000165759
0.0108697
0.000171055
0.0108852
0.000185312
0.0108993
0.000191841
0.0109131
0.000209674
0.0109264
0.000218569
0.0109385
0.000239873
0.0109512
0.000252792
0.0109619
0.000276783
0.0109739
0.000296185
0.010984
0.000321714
0.0109952
0.000349928
0.0110052
0.000376688
0.0110162
0.00041451
0.0110264
0.000443775
0.0110377
0.000490399
0.0110481
0.000524321
0.0110595
0.000578283
0.0110692
0.000619305
0.0110794
0.000678917
0.0110849
0.000730026
0.011091
0.000793917
0.0110878
0.000857062
0.011084
0.000925669
0.0110669
0.00100283
0.0110446
0.00107915
0.0110071
0.00117622
0.0109613
0.00126544
0.0108991
0.00138939
0.0108285
0.00149929
0.010744
0.00165574
0.0106543
0.00178782
0.0105431
0.00196684
0.0104052
0.00210925
0.0102132
0.00228354
0.00995018
0.00242429
0.00961641
0.00257299
0.00924888
0.00269625
0.00277992
0.00875794
0.0100025
5.31043e-06
0.0100092
1.67094e-05
0.0100205
2.6877e-05
0.010035
3.66677e-05
0.0100525
4.46775e-05
0.0100707
5.07221e-05
0.0100904
5.53404e-05
0.0101098
5.81692e-05
0.0101302
6.06175e-05
0.0101504
6.19962e-05
0.0101717
6.38833e-05
0.0101933
6.51441e-05
0.0102157
6.7316e-05
0.0102383
6.85533e-05
0.010261
7.04476e-05
0.0102842
7.16154e-05
0.0103072
7.26455e-05
0.0103305
7.40779e-05
0.0103537
7.42158e-05
0.0103769
7.64011e-05
0.0104005
7.58494e-05
0.0104235
7.88393e-05
0.0104473
7.77518e-05
0.01047
8.1396e-05
0.0104939
8.02378e-05
0.0105163
8.39744e-05
0.0105398
8.35559e-05
0.0105621
8.65429e-05
0.0105848
8.78045e-05
0.0106071
8.9642e-05
0.0106289
9.28671e-05
0.0106511
9.38443e-05
0.0106717
9.88638e-05
0.0106937
9.93908e-05
0.0107131
0.000106379
0.0107349
0.0001065
0.0107526
0.000115715
0.0107743
0.000115982
0.0107905
0.000126828
0.0108116
0.000128894
0.0108267
0.000140088
0.0108467
0.000145764
0.0108611
0.000156639
0.0108795
0.000166903
0.0108936
0.000177676
0.0109102
0.000193089
0.0109246
0.000204183
0.010939
0.000225455
0.0109545
0.000237364
0.0109663
0.000264984
0.0109836
0.000278826
0.0109928
0.000312525
0.0110125
0.000330281
0.01102
0.00036912
0.0110413
0.00039321
0.011049
0.000436134
0.0110709
0.000468475
0.0110798
0.000515391
0.0111012
0.000556946
0.0111118
0.000608706
0.0111299
0.000660753
0.0111424
0.000717584
0.0111539
0.000782338
0.0111666
0.000844438
0.0111681
0.000924151
0.011176
0.00099488
0.0111635
0.00109165
0.0111622
0.00117754
0.0111328
0.00129482
0.0111192
0.00140298
0.0110735
0.00154506
0.0110487
0.00168053
0.0109887
0.00184776
0.0109429
0.00201269
0.010854
0.0021981
0.0107502
0.0023874
0.0106033
0.0025712
0.0104067
0.00276958
0.010174
0.00292891
0.00313542
0.00981853
0.0100023
2.98713e-06
0.0100077
1.1379e-05
0.0100178
1.67599e-05
0.0100302
2.42742e-05
0.0100463
2.85178e-05
0.0100631
3.39491e-05
0.0100823
3.61567e-05
0.0101011
3.9333e-05
0.0101215
4.02369e-05
0.0101414
4.20833e-05
0.0101625
4.27552e-05
0.0101837
4.39887e-05
0.0102056
4.53649e-05
0.010228
4.61659e-05
0.0102504
4.81031e-05
0.0102737
4.82908e-05
0.0102962
5.01947e-05
0.0103201
5.01684e-05
0.0103425
5.18227e-05
0.0103666
5.2239e-05
0.0103891
5.33951e-05
0.0104132
5.46738e-05
0.0104359
5.51011e-05
0.0104597
5.75599e-05
0.0104826
5.73418e-05
0.0105059
6.06699e-05
0.0105289
6.05317e-05
0.0105517
6.37489e-05
0.0105745
6.50291e-05
0.010597
6.71945e-05
0.0106191
7.06882e-05
0.0106413
7.17294e-05
0.0106627
7.73763e-05
0.0106843
7.78015e-05
0.0107051
8.56267e-05
0.0107262
8.54239e-05
0.0107459
9.60289e-05
0.0107667
9.51726e-05
0.010785
0.000108491
0.0108055
0.0001084
0.0108227
0.000122846
0.0108424
0.000126098
0.0108592
0.000139854
0.0108774
0.000148673
0.0108945
0.000160625
0.0109106
0.000176923
0.0109289
0.000185929
0.0109424
0.000211957
0.0109627
0.000217044
0.0109735
0.000254158
0.0109961
0.000256254
0.011005
0.000303589
0.0110296
0.000305681
0.0110377
0.000361035
0.0110641
0.000366842
0.0110727
0.000427565
0.0110993
0.000441875
0.0111107
0.000503919
0.0111349
0.000532784
0.0111506
0.000592977
0.0111714
0.000639927
0.0111897
0.00069937
0.0112072
0.000764821
0.0112253
0.00082633
0.011237
0.000912399
0.0112525
0.000979465
0.0112558
0.0010883
0.0112647
0.00116866
0.0112584
0.00130112
0.0112586
0.0014028
0.0112409
0.00156269
0.0112321
0.00168937
0.0111996
0.00188025
0.0111759
0.00203643
0.0111175
0.0022565
0.0110638
0.00244103
0.0109594
0.0026756
0.0108489
0.00288011
0.0106563
0.00312155
0.00333952
0.0104522
0.0100021
8.50992e-07
0.010007
6.55086e-06
0.0100162
7.53166e-06
0.0100276
1.28587e-05
0.0100426
1.35681e-05
0.0100588
1.77552e-05
0.0100771
1.78274e-05
0.0100959
2.04841e-05
0.0101158
2.03334e-05
0.010136
2.19384e-05
0.0101567
2.2001e-05
0.0101778
2.28715e-05
0.0101995
2.37315e-05
0.0102216
2.4031e-05
0.0102439
2.5775e-05
0.010267
2.52382e-05
0.0102896
2.75487e-05
0.0103133
2.64839e-05
0.0103359
2.92388e-05
0.01036
2.81333e-05
0.0103825
3.09439e-05
0.0104069
3.02842e-05
0.0104292
3.27288e-05
0.0104536
3.31945e-05
0.010476
3.48989e-05
0.0105001
3.66538e-05
0.0105227
3.79277e-05
0.0105461
4.02934e-05
0.0105687
4.24371e-05
0.0105917
4.4227e-05
0.0106139
4.84528e-05
0.0106365
4.91344e-05
0.0106582
5.56839e-05
0.0106802
5.57521e-05
0.0107016
6.43163e-05
0.0107227
6.42498e-05
0.0107438
7.49764e-05
0.010764
7.49238e-05
0.0107846
8.78889e-05
0.0108041
8.8947e-05
0.0108242
0.000102697
0.0108427
0.000107647
0.0108628
0.000119788
0.0108801
0.000131328
0.0109
0.0001407
0.0109169
0.000160064
0.0109362
0.000166597
0.0109532
0.000194934
0.0109721
0.000198158
0.0109894
0.000236863
0.0110084
0.000237242
0.0110265
0.000285528
0.0110454
0.000286808
0.0110655
0.000340928
0.0110839
0.00034842
0.0111063
0.00040515
0.0111256
0.000422606
0.0111488
0.000480719
0.0111701
0.000511475
0.0111939
0.000569128
0.0112159
0.00061792
0.0112414
0.000673927
0.0112626
0.000743653
0.0112879
0.000800959
0.0113074
0.000892935
0.0113305
0.000956348
0.0113465
0.00107235
0.0113644
0.0011507
0.0113769
0.00128864
0.0113852
0.00139446
0.0113929
0.00155497
0.0113882
0.00169411
0.0113852
0.00188322
0.0113636
0.00205807
0.0113396
0.00228052
0.0112962
0.00248435
0.0112277
0.00274411
0.011145
0.00296283
0.0110016
0.00326494
0.00349785
0.0108433
0.0100019
-1.03165e-06
0.0100068
1.62319e-06
0.0100154
-1.03195e-06
0.0100266
1.68115e-06
0.0100407
-5.61647e-07
0.0100568
1.60955e-06
0.0100745
1.38037e-07
0.0100936
1.41048e-06
0.010113
9.15956e-07
0.0101336
1.38705e-06
0.0101539
1.65541e-06
0.0101753
1.43678e-06
0.0101965
2.53706e-06
0.0102189
1.69687e-06
0.0102409
3.72044e-06
0.0102641
2.03343e-06
0.0102867
5.00337e-06
0.0103104
2.72959e-06
0.0103331
6.60282e-06
0.0103572
4.00786e-06
0.0103798
8.34074e-06
0.0104042
5.90214e-06
0.0104267
1.01835e-05
0.0104512
8.75872e-06
0.0104737
1.23286e-05
0.010498
1.23732e-05
0.0105206
1.53502e-05
0.0105446
1.62934e-05
0.010567
2.00701e-05
0.0105908
2.04202e-05
0.0106126
2.6563e-05
0.0106362
2.55438e-05
0.0106577
3.42219e-05
0.0106807
3.27958e-05
0.0107021
4.28462e-05
0.0107239
4.24813e-05
0.0107457
5.31638e-05
0.0107662
5.44649e-05
0.0107881
6.59418e-05
0.0108077
6.93851e-05
0.0108293
8.11118e-05
0.0108484
8.84847e-05
0.0108693
9.88768e-05
0.0108886
0.000112109
0.0109085
0.000120795
0.0109285
0.000139986
0.0109468
0.000148287
0.0109688
0.000172965
0.0109852
0.000181751
0.0110096
0.000212507
0.0110247
0.000222162
0.0110512
0.000259016
0.0110664
0.000271606
0.011094
0.000313282
0.0111114
0.000331032
0.0111388
0.000377746
0.0111601
0.000401361
0.0111867
0.000454069
0.0112125
0.000485706
0.0112381
0.000543524
0.0112687
0.000587262
0.0112931
0.000649588
0.0113275
0.000709259
0.0113513
0.000777146
0.0113869
0.000857286
0.0114105
0.000932749
0.0114447
0.00103816
0.0114681
0.0011273
0.0114981
0.00125863
0.0115187
0.0013739
0.0115418
0.0015319
0.0115564
0.00167945
0.0115636
0.001876
0.0115681
0.00205359
0.0115536
0.00229501
0.0115305
0.00250749
0.0114902
0.00278441
0.0114049
0.00304809
0.0113263
0.00334362
0.00366191
0.0111622
0.0100017
-2.76125e-06
0.0100069
-3.54783e-06
0.0100153
-9.41156e-06
0.0100267
-9.69945e-06
0.0100406
-1.45499e-05
0.010057
-1.47333e-05
0.0100746
-1.742e-05
0.0100939
-1.78967e-05
0.010113
-1.82533e-05
0.010134
-1.95835e-05
0.0101539
-1.82829e-05
0.0101759
-2.05007e-05
0.0101967
-1.82413e-05
0.0102194
-2.10448e-05
0.0102413
-1.8152e-05
0.0102646
-2.13099e-05
0.0102873
-1.76443e-05
0.0103109
-2.09194e-05
0.0103339
-1.63577e-05
0.0103578
-1.9963e-05
0.0103808
-1.46222e-05
0.0104051
-1.84138e-05
0.010428
-1.26607e-05
0.0104524
-1.57124e-05
0.0104753
-1.05801e-05
0.0104996
-1.18869e-05
0.0105227
-7.79361e-06
0.0105465
-7.44563e-06
0.0105698
-3.22915e-06
0.0105931
-2.87819e-06
0.0106162
3.45367e-06
0.0106392
2.52564e-06
0.0106619
1.14944e-05
0.0106846
1.01337e-05
0.0107071
2.03923e-05
0.0107291
2.03982e-05
0.0107515
3.08365e-05
0.0107729
3.30178e-05
0.010795
4.38766e-05
0.0108161
4.82658e-05
0.0108376
5.9582e-05
0.0108587
6.74081e-05
0.0108797
7.78976e-05
0.0109008
9.09393e-05
0.0109213
0.000100302
0.0109431
0.000118262
0.0109629
0.00012847
0.0109857
0.000150135
0.0110053
0.000162124
0.0110288
0.000189017
0.0110498
0.00020115
0.0110733
0.000235518
0.0110963
0.000248676
0.0111212
0.000288323
0.0111452
0.000307041
0.0111725
0.000350478
0.0111992
0.000374695
0.0112268
0.000426434
0.0112586
0.000453927
0.0112865
0.000515542
0.0113224
0.000551402
0.0113525
0.000619491
0.0113915
0.000670249
0.0114243
0.00074441
0.0114644
0.000817109
0.0115031
0.000894069
0.011539
0.00100227
0.0115866
0.00107968
0.0116155
0.00122981
0.0116678
0.00132155
0.0116917
0.001508
0.0117364
0.0016348
0.0117579
0.00185447
0.0117796
0.00203189
0.0117932
0.00228142
0.0117802
0.00252043
0.0117629
0.00280176
0.0117104
0.00310054
0.0116264
0.00342763
0.00376822
0.0115201
0.0100015
-4.28984e-06
0.0100074
-9.37053e-06
0.0100158
-1.78159e-05
0.010028
-2.19834e-05
0.0100423
-2.8762e-05
0.0100593
-3.18266e-05
0.010077
-3.5093e-05
0.0100967
-3.75627e-05
0.010116
-3.75211e-05
0.0101369
-4.05712e-05
0.0101571
-3.84812e-05
0.0101789
-4.22342e-05
0.0102003
-3.96542e-05
0.0102225
-4.32976e-05
0.0102454
-4.10436e-05
0.0102678
-4.37078e-05
0.0102918
-4.16307e-05
0.0103142
-4.33443e-05
0.0103387
-4.0795e-05
0.0103615
-4.28307e-05
0.0103857
-3.88139e-05
0.0104094
-4.20953e-05
0.010433
-3.6272e-05
0.0104573
-4.00193e-05
0.0104808
-3.40383e-05
0.0105049
-3.6e-05
0.0105289
-3.17807e-05
0.0105521
-3.06634e-05
0.0105768
-2.78814e-05
0.0105992
-2.52671e-05
0.0106239
-2.13102e-05
0.0106461
-1.96342e-05
0.0106703
-1.27057e-05
0.0106926
-1.21472e-05
0.0107161
-3.16495e-06
0.0107383
-1.80636e-06
0.0107615
7.63699e-06
0.0107834
1.11451e-05
0.0108064
2.0866e-05
0.010828
2.66978e-05
0.0108507
3.68465e-05
0.0108722
4.58777e-05
0.0108948
5.53586e-05
0.0109162
6.95221e-05
0.010939
7.7467e-05
0.0109604
9.68554e-05
0.0109834
0.000105473
0.011006
0.000127568
0.0110284
0.000139764
0.0110533
0.000164064
0.0110754
0.000179068
0.0111024
0.0002085
0.0111255
0.000225542
0.011155
0.000258848
0.0111785
0.000283554
0.0112131
0.000315856
0.0112358
0.000351978
0.0112761
0.000386168
0.0113006
0.000429456
0.0113446
0.00047152
0.0113723
0.00052375
0.0114216
0.000570151
0.0114517
0.000640157
0.0115057
0.000690369
0.0115424
0.000780484
0.0115971
0.000839337
0.0116429
0.000956453
0.0116974
0.00102521
0.011752
0.00117514
0.0118037
0.00126993
0.0118662
0.00144549
0.0119108
0.00159019
0.0119715
0.00179372
0.0120071
0.00199631
0.0120462
0.00224228
0.0120627
0.002504
0.0120631
0.00280134
0.012036
0.00312761
0.0119822
0.00348147
0.00387176
0.0118786
0.0100015
-5.80039e-06
0.0100082
-1.60247e-05
0.0100171
-2.67887e-05
0.0100308
-3.56171e-05
0.010046
-4.39535e-05
0.0100638
-4.97128e-05
0.0100823
-5.35686e-05
0.010102
-5.72077e-05
0.0101219
-5.74905e-05
0.0101424
-6.108e-05
0.0101634
-5.947e-05
0.0101848
-6.36291e-05
0.0102071
-6.19122e-05
0.0102292
-6.53836e-05
0.0102528
-6.4645e-05
0.0102749
-6.57817e-05
0.0102997
-6.64668e-05
0.0103214
-6.50565e-05
0.0103472
-6.65614e-05
0.0103689
-6.4515e-05
0.0103948
-6.47355e-05
0.0104172
-6.44895e-05
0.0104423
-6.14526e-05
0.0104659
-6.35803e-05
0.0104902
-5.8326e-05
0.0105144
-6.02318e-05
0.0105385
-5.58783e-05
0.0105624
-5.45283e-05
0.010587
-5.2527e-05
0.01061
-4.81924e-05
0.0106352
-4.65371e-05
0.0106574
-4.18205e-05
0.0106827
-3.8054e-05
0.0107046
-3.39859e-05
0.0107297
-2.83205e-05
0.0107514
-2.34848e-05
0.0107762
-1.71317e-05
0.0107979
-1.05975e-05
0.0108222
-3.39905e-06
0.0108442
4.66123e-06
0.0108679
1.31473e-05
0.0108902
2.35652e-05
0.0109137
3.18285e-05
0.0109363
4.70089e-05
0.0109598
5.39181e-05
0.0109832
7.34354e-05
0.0110062
8.25292e-05
0.0110318
0.000101949
0.0110539
0.000117677
0.0110818
0.000136193
0.0111048
0.000156001
0.0111336
0.00017971
0.0111595
0.000199606
0.0111898
0.000228562
0.0112174
0.000255996
0.0112527
0.00028057
0.01128
0.000324624
0.011322
0.000344232
0.0113513
0.000400082
0.0113969
0.000425978
0.0114342
0.000486399
0.0114788
0.000525585
0.01153
0.000588915
0.0115703
0.000650115
0.01164
0.000710781
0.0116746
0.000804765
0.0117637
0.000867338
0.0117975
0.000991341
0.0118979
0.00107479
0.0119411
0.00122677
0.012042
0.00134455
0.0120968
0.00153542
0.0121907
0.00169977
0.0122496
0.00193744
0.0123204
0.00217144
0.0123692
0.00245526
0.0123968
0.00277371
0.0124082
0.00311617
0.0123646
0.00352508
0.00392854
0.0123078
0.010002
-7.78018e-06
0.0100095
-2.35236e-05
0.0100202
-3.74716e-05
0.0100355
-5.091e-05
0.0100525
-6.09723e-05
0.0100713
-6.85086e-05
0.0100908
-7.30535e-05
0.0101105
-7.6992e-05
0.0101308
-7.77996e-05
0.0101516
-8.18013e-05
0.0101726
-8.05431e-05
0.0101951
-8.60537e-05
0.0102169
-8.37531e-05
0.0102405
-8.90114e-05
0.0102631
-8.72192e-05
0.0102868
-8.95047e-05
0.0103106
-9.02587e-05
0.0103335
-8.79695e-05
0.010359
-9.20001e-05
0.010381
-8.65336e-05
0.0104075
-9.12529e-05
0.0104295
-8.64944e-05
0.0104557
-8.76732e-05
0.0104789
-8.67732e-05
0.0105038
-8.32073e-05
0.0105285
-8.49303e-05
0.0105522
-7.95604e-05
0.0105776
-7.99556e-05
0.010601
-7.58748e-05
0.0106262
-7.34073e-05
0.0106498
-7.01583e-05
0.0106744
-6.64166e-05
0.0106984
-6.20318e-05
0.0107224
-5.80431e-05
0.0107465
-5.2402e-05
0.0107704
-4.73882e-05
0.0107941
-4.08279e-05
0.0108186
-3.50496e-05
0.010841
-2.58721e-05
0.0108669
-2.11562e-05
0.0108877
-7.70303e-06
0.0109151
-3.85864e-06
0.0109351
1.1906e-05
0.0109629
1.91839e-05
0.0109838
3.29902e-05
0.0110108
4.64057e-05
0.0110337
5.97027e-05
0.0110611
7.45563e-05
0.0110842
9.44989e-05
0.011114
0.000106391
0.0111379
0.000132104
0.0111685
0.000149119
0.0111977
0.000170439
0.0112265
0.000199728
0.0112616
0.000220875
0.0112926
0.000249668
0.0113308
0.000286389
0.0113656
0.000309431
0.011411
0.000354718
0.0114451
0.000391861
0.0115029
0.000428603
0.0115377
0.000490788
0.0116047
0.000521859
0.0116474
0.000607406
0.0117216
0.000636574
0.0117748
0.000751623
0.0118582
0.000783905
0.011925
0.000924528
0.0120164
0.000983386
0.0121033
0.00113985
0.0121981
0.00124982
0.0123078
0.00142572
0.0123986
0.00160894
0.0125223
0.00181372
0.0126032
0.00209053
0.0127081
0.00235036
0.0127595
0.00272231
0.0128252
0.00305051
0.0128103
0.00353995
0.00397578
0.0127631
0.0100029
-1.06354e-05
0.0100119
-3.26042e-05
0.0100255
-5.10747e-05
0.0100433
-6.87053e-05
0.0100627
-8.02977e-05
0.0100826
-8.84919e-05
0.0101029
-9.32899e-05
0.010123
-9.7126e-05
0.0101435
-9.83272e-05
0.0101649
-0.000103201
0.0101863
-0.000101881
0.01021
-0.000109787
0.0102314
-0.000105171
0.0102569
-0.000114462
0.0102781
-0.00010841
0.0103041
-0.000115538
0.0103259
-0.000112046
0.0103513
-0.000113409
0.0103749
-0.000115569
0.0103989
-0.000110583
0.0104245
-0.000116841
0.0104474
-0.00010934
0.010474
-0.000114317
0.0104968
-0.00010954
0.0105231
-0.000109528
0.0105468
-0.000108653
0.010572
-0.000104758
0.010597
-0.000104906
0.010621
-9.99346e-05
0.0106469
-9.92738e-05
0.0106702
-9.34748e-05
0.0106964
-9.25805e-05
0.0107196
-8.52496e-05
0.0107454
-8.38624e-05
0.010769
-7.59403e-05
0.0107944
-7.28359e-05
0.0108179
-6.43225e-05
0.0108436
-6.07734e-05
0.0108664
-4.86465e-05
0.010893
-4.77465e-05
0.0109151
-2.98244e-05
0.010942
-3.07309e-05
0.0109649
-1.10352e-05
0.0109904
-6.28514e-06
0.0110164
7.04107e-06
0.0110398
2.29083e-05
0.0110681
3.14783e-05
0.0110933
4.93198e-05
0.0111191
6.86864e-05
0.0111513
7.41877e-05
0.0111732
0.000110243
0.0112102
0.000112077
0.0112365
0.000144195
0.0112691
0.00016707
0.0113082
0.000181772
0.0113357
0.000222191
0.0113836
0.000238486
0.0114159
0.000277167
0.0114648
0.000305836
0.0115084
0.000348231
0.0115577
0.000379265
0.0116146
0.000433915
0.0116652
0.00047123
0.0117388
0.000533816
0.0117912
0.000584181
0.0118865
0.000656359
0.0119414
0.000729016
0.0120596
0.000806253
0.0121277
0.000915331
0.0122643
0.00100321
0.0123555
0.00115867
0.0125084
0.00127284
0.0126244
0.00149295
0.0127825
0.00165554
0.012921
0.00195209
0.0130482
0.0022231
0.0131971
0.00257346
0.013252
0.00299565
0.013347
0.00344492
0.00401537
0.0133074
0.0100045
-1.51756e-05
0.0100165
-4.46074e-05
0.0100353
-6.98004e-05
0.0100564
-8.97866e-05
0.0100785
-0.000102455
0.010099
-0.000109026
0.0101201
-0.000114326
0.0101402
-0.000117235
0.0101619
-0.000120009
0.0101838
-0.000125134
0.0102066
-0.000124633
0.0102305
-0.000133764
0.0102532
-0.000127794
0.0102786
-0.000139945
0.0103003
-0.000130081
0.0103268
-0.000142028
0.0103482
-0.000133419
0.010375
-0.000140195
0.0103973
-0.000137919
0.0104232
-0.000136518
0.0104475
-0.000141145
0.0104717
-0.000133526
0.0104983
-0.00014087
0.0105206
-0.000131847
0.010549
-0.000137953
0.01057
-0.000129605
0.0105993
-0.00013411
0.01062
-0.000125628
0.010649
-0.000128874
0.0106707
-0.000121004
0.0106983
-0.000121037
0.0107212
-0.000115456
0.010748
-0.0001121
0.0107706
-0.000106484
0.0107983
-0.00010362
0.0108196
-9.41096e-05
0.0108482
-9.29889e-05
0.0108689
-8.14665e-05
0.0108973
-7.69923e-05
0.010919
-6.94448e-05
0.0109459
-5.67075e-05
0.0109692
-5.40937e-05
0.0109955
-3.73225e-05
0.0110189
-2.9688e-05
0.0110478
-2.18267e-05
0.0110685
2.22305e-06
0.0111025
-2.57728e-06
0.011121
3.08741e-05
0.011157
3.26674e-05
0.0111796
5.15503e-05
0.0112131
7.67586e-05
0.0112427
8.24783e-05
0.0112756
0.000111303
0.0113084
0.000134272
0.0113472
0.000142945
0.0113814
0.000187998
0.0114256
0.000194284
0.011468
0.000234812
0.0115111
0.000262709
0.0115694
0.000289968
0.0116095
0.00033912
0.0116854
0.000358059
0.0117276
0.000428963
0.0118174
0.000444096
0.0118716
0.000529956
0.0119743
0.000553687
0.0120443
0.000658931
0.0121615
0.000689133
0.0122648
0.000811971
0.0123813
0.000886751
0.0125461
0.000993838
0.01266
0.00115899
0.0128852
0.00126775
0.0130188
0.00152193
0.0132583
0.00171252
0.0134306
0.00205086
0.0136276
0.00237643
0.0137945
0.0028288
0.0139093
0.00333009
0.00394842
0.0139762
0.0100072
-2.23669e-05
0.0100268
-6.42495e-05
0.0100521
-9.50452e-05
0.0100772
-0.000114881
0.0101007
-0.000125966
0.0101228
-0.000131163
0.0101439
-0.000135394
0.0101652
-0.000138571
0.0101876
-0.000142429
0.0102111
-0.000148564
0.0102352
-0.000148731
0.0102593
-0.000157879
0.0102833
-0.000151845
0.0103074
-0.000163975
0.0103307
-0.000153381
0.0103553
-0.0001667
0.0103777
-0.000155785
0.0104037
-0.000166214
0.0104251
-0.000159338
0.0104522
-0.000163584
0.0104733
-0.000162194
0.0105001
-0.000160358
0.0105221
-0.000162909
0.0105471
-0.000156829
0.0105714
-0.000162225
0.0105936
-0.000151812
0.0106201
-0.000160572
0.0106403
-0.000145846
0.0106674
-0.000155995
0.0106874
-0.000141033
0.0107135
-0.000147144
0.0107343
-0.000136234
0.0107592
-0.000137036
0.0107803
-0.000127515
0.0108046
-0.000127954
0.0108259
-0.000115378
0.0108486
-0.000115748
0.0108723
-0.000105094
0.0108908