/*--------------------------------*- C++ -*----------------------------------*\
| =========                 |                                                 |
| \\      /  F ield         | OpenFOAM: The Open Source CFD Toolbox           |
|  \\    /   O peration     | Version:  2306                                  |
|   \\  /    A nd           | Website:  www.openfoam.com                      |
|    \\/     M anipulation  |                                                 |
\*---------------------------------------------------------------------------*/
FoamFile
{
    version     2.0;
    format      ascii;
    arch        "LSB;label=32;scalar=64";
    class       volVectorField;
    location    "0.375";
    object      U;
}
// * * * * * * * * * * * * * * * * * * * * * * * * * * * * * * * * * * * * * //

dimensions      [0 1 -1 0 0 0 0];

internalField   nonuniform List<vector> 
4400
(
(9.90179 0.0455288 0)
(9.80626 0.0986938 0)
(9.70006 0.12098 0)
(9.5702 0.125776 0)
(9.4182 0.124495 0)
(9.25221 0.123452 0)
(9.08062 0.124137 0)
(8.90821 0.125692 0)
(8.73729 0.126972 0)
(8.56779 0.127422 0)
(8.40015 0.126862 0)
(8.23331 0.125551 0)
(8.06802 0.123766 0)
(7.90321 0.121737 0)
(7.74003 0.119675 0)
(7.57757 0.117515 0)
(7.41701 0.115451 0)
(7.25755 0.113232 0)
(7.10013 0.111092 0)
(6.94414 0.108753 0)
(6.79026 0.106462 0)
(6.63809 0.104044 0)
(6.48808 0.101606 0)
(6.33993 0.0991586 0)
(6.19408 0.0966127 0)
(6.05011 0.0941628 0)
(5.90869 0.0915848 0)
(5.76896 0.0891734 0)
(5.63211 0.086614 0)
(5.49665 0.084238 0)
(5.36444 0.0817897 0)
(5.23324 0.0795242 0)
(5.10551 0.0772129 0)
(4.97839 0.0750692 0)
(4.85479 0.0729569 0)
(4.73137 0.0710244 0)
(4.61134 0.0691754 0)
(4.49095 0.0675562 0)
(4.37371 0.0661031 0)
(4.25538 0.0649477 0)
(4.13979 0.0640554 0)
(4.02223 0.0635074 0)
(3.90677 0.0633649 0)
(3.78841 0.063548 0)
(3.67121 0.064316 0)
(3.54996 0.0653372 0)
(3.42863 0.0671574 0)
(3.30186 0.0691536 0)
(3.17349 0.0721398 0)
(3.03795 0.07527 0)
(2.89909 0.0795071 0)
(2.75092 0.0839091 0)
(2.59761 0.0894401 0)
(2.43246 0.0951372 0)
(2.26036 0.10187 0)
(2.07359 0.108601 0)
(1.87831 0.116133 0)
(1.66565 0.123116 0)
(1.44358 0.130406 0)
(1.20218 0.135988 0)
(0.9518 0.140699 0)
(0.681669 0.141225 0)
(0.40449 0.134584 0)
(0.127104 0.10382 0)
(-0.125074 0.0487466 0)
(-0.373323 -0.0340393 0)
(-0.550545 -0.126081 0)
(-0.667913 -0.235787 0)
(-0.678278 -0.358783 0)
(-0.613449 -0.497643 0)
(-0.415378 -0.621431 0)
(-0.15531 -0.708054 0)
(0.134027 -0.572007 0)
(0.295016 -0.216359 0)
(0.394043 0.481308 0)
(-0.360272 0.91423 0)
(-0.575494 0.307229 0)
(-0.187302 -0.0814631 0)
(0.0510641 -0.0933776 0)
(-0.11789 -0.253996 0)
(10.0002 0.061253 0)
(10.0319 0.137368 0)
(10.0696 0.173648 0)
(10.105 0.184927 0)
(10.1326 0.186134 0)
(10.15 0.186299 0)
(10.1591 0.188184 0)
(10.1608 0.192069 0)
(10.1594 0.195802 0)
(10.1536 0.199237 0)
(10.147 0.200991 0)
(10.1366 0.20213 0)
(10.1255 0.202042 0)
(10.1105 0.201922 0)
(10.0942 0.201251 0)
(10.0746 0.200751 0)
(10.0531 0.200074 0)
(10.0291 0.19936 0)
(10.0028 0.19862 0)
(9.97485 0.197634 0)
(9.94433 0.196658 0)
(9.9125 0.195459 0)
(9.87835 0.194226 0)
(9.84255 0.192823 0)
(9.8053 0.191413 0)
(9.76542 0.189828 0)
(9.72551 0.188303 0)
(9.68149 0.186661 0)
(9.63909 0.184989 0)
(9.59113 0.183399 0)
(9.54612 0.181638 0)
(9.49452 0.180169 0)
(9.44658 0.178443 0)
(9.39147 0.177151 0)
(9.34038 0.175528 0)
(9.2816 0.174608 0)
(9.22711 0.173201 0)
(9.16431 0.172819 0)
(9.10597 0.171874 0)
(9.0387 0.172147 0)
(8.97573 0.171982 0)
(8.90329 0.173137 0)
(8.83461 0.174063 0)
(8.75614 0.176465 0)
(8.68029 0.178837 0)
(8.59459 0.182869 0)
(8.50972 0.187081 0)
(8.41506 0.193184 0)
(8.31896 0.19964 0)
(8.21287 0.208343 0)
(8.103 0.217376 0)
(7.98215 0.229262 0)
(7.85549 0.241165 0)
(7.71573 0.256763 0)
(7.56852 0.271723 0)
(7.40507 0.291286 0)
(7.23262 0.30925 0)
(7.04028 0.33249 0)
(6.83703 0.352727 0)
(6.61044 0.378374 0)
(6.37043 0.398616 0)
(6.10432 0.423403 0)
(5.82191 0.438031 0)
(5.51271 0.454072 0)
(5.1902 0.451508 0)
(4.84841 0.447988 0)
(4.46943 0.414965 0)
(4.06777 0.382085 0)
(3.59265 0.321086 0)
(3.07381 0.280233 0)
(2.38729 0.212986 0)
(1.57057 0.216706 0)
(0.5174 0.147632 0)
(-0.170808 0.00703623 0)
(-0.562253 0.0881079 0)
(-0.512785 0.0224408 0)
(-0.19475 -0.563544 0)
(-0.566422 -0.66251 0)
(-0.574566 0.0275575 0)
(-0.498415 0.555322 0)
(10.0001 0.0268741 0)
(10.0167 0.0695284 0)
(10.0429 0.100072 0)
(10.0747 0.117307 0)
(10.1085 0.127003 0)
(10.1392 0.13173 0)
(10.1674 0.13599 0)
(10.1908 0.140304 0)
(10.2132 0.145346 0)
(10.2328 0.150434 0)
(10.2536 0.15482 0)
(10.273 0.158807 0)
(10.2935 0.161612 0)
(10.313 0.164199 0)
(10.3322 0.166097 0)
(10.3514 0.167751 0)
(10.3684 0.169636 0)
(10.3869 0.17061 0)
(10.4015 0.172668 0)
(10.4189 0.173097 0)
(10.4316 0.175055 0)
(10.4475 0.175241 0)
(10.4585 0.176807 0)
(10.4723 0.176971 0)
(10.482 0.178004 0)
(10.493 0.178373 0)
(10.5016 0.178788 0)
(10.5096 0.179606 0)
(10.5168 0.179368 0)
(10.5217 0.180645 0)
(10.527 0.180102 0)
(10.529 0.181551 0)
(10.5319 0.181256 0)
(10.5309 0.182708 0)
(10.531 0.182909 0)
(10.5268 0.184656 0)
(10.5238 0.185409 0)
(10.5161 0.187795 0)
(10.5098 0.189336 0)
(10.4979 0.192576 0)
(10.488 0.195338 0)
(10.4714 0.199689 0)
(10.4574 0.204202 0)
(10.4356 0.209938 0)
(10.4164 0.217038 0)
(10.3893 0.224321 0)
(10.3634 0.23491 0)
(10.3303 0.244171 0)
(10.2966 0.258871 0)
(10.2562 0.271031 0)
(10.2134 0.290184 0)
(10.1637 0.306347 0)
(10.1109 0.330223 0)
(10.0489 0.351493 0)
(9.98476 0.380356 0)
(9.90728 0.407329 0)
(9.82951 0.441543 0)
(9.73326 0.473669 0)
(9.63807 0.513307 0)
(9.51972 0.548304 0)
(9.40112 0.591864 0)
(9.25703 0.624761 0)
(9.10603 0.667209 0)
(8.9306 0.689451 0)
(8.73413 0.720889 0)
(8.51796 0.723065 0)
(8.25247 0.736924 0)
(7.96736 0.721495 0)
(7.61014 0.734953 0)
(7.22823 0.737914 0)
(6.75746 0.799998 0)
(6.2461 0.869101 0)
(5.6654 0.993708 0)
(5.00148 0.985547 0)
(4.40585 0.907229 0)
(3.40141 0.762989 0)
(2.75663 0.509073 0)
(1.41508 0.378032 0)
(0.0769038 -0.103359 0)
(-0.157467 -0.471438 0)
(10.0002 0.0189607 0)
(10.01 0.0523677 0)
(10.0279 0.0808959 0)
(10.051 0.100922 0)
(10.0782 0.114974 0)
(10.105 0.122916 0)
(10.1321 0.128501 0)
(10.1559 0.132552 0)
(10.1799 0.13622 0)
(10.201 0.140526 0)
(10.224 0.143667 0)
(10.245 0.147985 0)
(10.2686 0.149826 0)
(10.2908 0.153371 0)
(10.3146 0.153941 0)
(10.3378 0.156697 0)
(10.3611 0.156896 0)
(10.3847 0.158933 0)
(10.4072 0.159399 0)
(10.4307 0.160734 0)
(10.4529 0.161619 0)
(10.4759 0.162386 0)
(10.4981 0.16357 0)
(10.52 0.163812 0)
(10.5425 0.165322 0)
(10.5628 0.165105 0)
(10.5856 0.166954 0)
(10.6039 0.166549 0)
(10.627 0.168483 0)
(10.6431 0.168335 0)
(10.6661 0.170189 0)
(10.6799 0.170586 0)
(10.7027 0.172421 0)
(10.7137 0.173589 0)
(10.7363 0.175445 0)
(10.7443 0.177777 0)
(10.766 0.17977 0)
(10.7714 0.183449 0)
(10.7914 0.186119 0)
(10.7943 0.191092 0)
(10.8122 0.195176 0)
(10.8123 0.201636 0)
(10.8278 0.207576 0)
(10.8249 0.216054 0)
(10.8377 0.224342 0)
(10.8316 0.235292 0)
(10.8408 0.246735 0)
(10.8319 0.260505 0)
(10.8363 0.276053 0)
(10.8251 0.293228 0)
(10.8231 0.313588 0)
(10.81 0.335295 0)
(10.8008 0.360628 0)
(10.785 0.388533 0)
(10.7685 0.418536 0)
(10.7486 0.454242 0)
(10.7243 0.488374 0)
(10.6984 0.53284 0)
(10.6661 0.569735 0)
(10.6297 0.623012 0)
(10.5896 0.659695 0)
(10.5345 0.719761 0)
(10.4857 0.752055 0)
(10.399 0.813179 0)
(10.3344 0.837733 0)
(10.1996 0.893684 0)
(10.1037 0.916087 0)
(9.9025 0.972286 0)
(9.75961 1.01229 0)
(9.47655 1.08576 0)
(9.27423 1.16743 0)
(8.89702 1.27029 0)
(8.62952 1.37363 0)
(8.13498 1.45445 0)
(7.7703 1.48522 0)
(7.14685 1.51602 0)
(6.59062 1.48428 0)
(5.89275 1.49705 0)
(5.00548 1.48956 0)
(4.15494 1.22883 0)
(10.0004 0.0133675 0)
(10.0067 0.0382665 0)
(10.02 0.0606378 0)
(10.0366 0.0775668 0)
(10.0591 0.090816 0)
(10.0809 0.0986104 0)
(10.1066 0.104723 0)
(10.1279 0.108033 0)
(10.1532 0.111557 0)
(10.1723 0.114311 0)
(10.1974 0.117364 0)
(10.2156 0.120451 0)
(10.2419 0.122741 0)
(10.2603 0.125624 0)
(10.2877 0.12681 0)
(10.3069 0.129246 0)
(10.3345 0.129846 0)
(10.3542 0.131658 0)
(10.3815 0.132452 0)
(10.4014 0.1335 0)
(10.4285 0.135006 0)
(10.4484 0.135293 0)
(10.4754 0.137424 0)
(10.4949 0.137136 0)
(10.5222 0.139694 0)
(10.5406 0.139131 0)
(10.5686 0.141949 0)
(10.5855 0.141426 0)
(10.6139 0.144265 0)
(10.6295 0.144227 0)
(10.6576 0.146952 0)
(10.6723 0.147679 0)
(10.6997 0.150383 0)
(10.7131 0.152063 0)
(10.74 0.154806 0)
(10.7515 0.157988 0)
(10.778 0.160481 0)
(10.7877 0.165945 0)
(10.8131 0.168103 0)
(10.8212 0.176266 0)
(10.8452 0.178631 0)
(10.8516 0.189517 0)
(10.8739 0.192939 0)
(10.8788 0.206548 0)
(10.899 0.212018 0)
(10.9027 0.228278 0)
(10.92 0.237175 0)
(10.9234 0.255783 0)
(10.9366 0.269912 0)
(10.9408 0.290378 0)
(10.9491 0.311703 0)
(10.9546 0.333807 0)
(10.9583 0.363652 0)
(10.964 0.388485 0)
(10.9654 0.426406 0)
(10.9681 0.456292 0)
(10.9713 0.501049 0)
(10.9665 0.537189 0)
(10.9746 0.588848 0)
(10.9591 0.629228 0)
(10.9707 0.688995 0)
(10.9429 0.729844 0)
(10.9527 0.797223 0)
(10.9072 0.836864 0)
(10.9089 0.909465 0)
(10.835 0.9512 0)
(10.82 1.03127 0)
(10.7062 1.08535 0)
(10.664 1.18022 0)
(10.5011 1.26123 0)
(10.4212 1.37523 0)
(10.2054 1.49187 0)
(10.0713 1.61379 0)
(9.80643 1.74481 0)
(9.5788 1.84555 0)
(9.26627 1.95283 0)
(8.87867 2.00989 0)
(8.47884 2.05709 0)
(7.85527 2.04635 0)
(7.21653 1.94544 0)
(10.0015 0.00950279 0)
(10.0037 0.027965 0)
(10.0166 0.0449393 0)
(10.0273 0.0584782 0)
(10.0482 0.0702863 0)
(10.0645 0.0773145 0)
(10.0902 0.0838667 0)
(10.1078 0.0866229 0)
(10.1347 0.0906287 0)
(10.1513 0.092144 0)
(10.1787 0.0956327 0)
(10.1942 0.0971621 0)
(10.2228 0.100283 0)
(10.2381 0.101756 0)
(10.2681 0.10407 0)
(10.2837 0.105463 0)
(10.3144 0.106875 0)
(10.3304 0.108188 0)
(10.361 0.109088 0)
(10.3777 0.110393 0)
(10.4076 0.111292 0)
(10.4251 0.112531 0)
(10.4538 0.113537 0)
(10.4723 0.114699 0)
(10.4999 0.115936 0)
(10.5189 0.116982 0)
(10.5459 0.118653 0)
(10.5646 0.119488 0)
(10.5912 0.121679 0)
(10.6096 0.122642 0)
(10.635 0.125122 0)
(10.6538 0.126766 0)
(10.6775 0.1293 0)
(10.6963 0.132054 0)
(10.7188 0.134664 0)
(10.7365 0.139004 0)
(10.7588 0.141405 0)
(10.7743 0.148293 0)
(10.7971 0.150013 0)
(10.8095 0.160295 0)
(10.8333 0.161583 0)
(10.8421 0.175183 0)
(10.8674 0.177287 0)
(10.8719 0.193652 0)
(10.8993 0.198016 0)
(10.8987 0.216725 0)
(10.9292 0.224877 0)
(10.9226 0.245544 0)
(10.9574 0.259192 0)
(10.9438 0.281568 0)
(10.9838 0.30228 0)
(10.963 0.326263 0)
(11.009 0.355727 0)
(10.981 0.380936 0)
(11.0329 0.42106 0)
(10.9995 0.447282 0)
(11.0551 0.498335 0)
(11.0196 0.527696 0)
(11.0754 0.586189 0)
(11.04 0.623651 0)
(11.093 0.684203 0)
(11.0575 0.733232 0)
(11.1039 0.793809 0)
(11.0657 0.855571 0)
(11.1011 0.915916 0)
(11.0538 0.996974 0)
(11.0749 1.05624 0)
(11.0099 1.16619 0)
(11.0101 1.23205 0)
(10.9248 1.37167 0)
(10.8926 1.46004 0)
(10.7903 1.62274 0)
(10.7133 1.74047 0)
(10.5965 1.91022 0)
(10.4569 2.04717 0)
(10.3085 2.18957 0)
(10.0738 2.32706 0)
(9.83581 2.40483 0)
(9.45461 2.52983 0)
(9.04014 2.5242 0)
(10.0026 0.00672959 0)
(10.0018 0.020167 0)
(10.0147 0.0325701 0)
(10.022 0.0430654 0)
(10.0411 0.0524375 0)
(10.0551 0.0586128 0)
(10.078 0.0643358 0)
(10.0957 0.067044 0)
(10.1198 0.0704971 0)
(10.1386 0.0717831 0)
(10.1629 0.0746267 0)
(10.1815 0.0757478 0)
(10.2068 0.0783159 0)
(10.2248 0.0795761 0)
(10.2519 0.0814303 0)
(10.2695 0.0831119 0)
(10.2981 0.0836622 0)
(10.3153 0.0860283 0)
(10.3448 0.0852827 0)
(10.3619 0.0885966 0)
(10.3916 0.087008 0)
(10.4092 0.0910087 0)
(10.4375 0.0890583 0)
(10.4568 0.0932902 0)
(10.4829 0.0917049 0)
(10.5043 0.095534 0)
(10.5281 0.0950643 0)
(10.5508 0.0978623 0)
(10.573 0.0990721 0)
(10.5964 0.100851 0)
(10.6171 0.103684 0)
(10.6408 0.104951 0)
(10.6603 0.109146 0)
(10.6835 0.110307 0)
(10.7027 0.116074 0)
(10.724 0.117223 0)
(10.7442 0.124707 0)
(10.7621 0.126547 0)
(10.7847 0.135087 0)
(10.7976 0.139172 0)
(10.8243 0.147783 0)
(10.8299 0.15547 0)
(10.8631 0.16399 0)
(10.8591 0.175863 0)
(10.9009 0.184775 0)
(10.8857 0.201344 0)
(10.937 0.211123 0)
(10.9107 0.232789 0)
(10.971 0.24491 0)
(10.9358 0.270463 0)
(11.0016 0.28837 0)
(10.9631 0.315494 0)
(11.0281 0.342324 0)
(10.9939 0.370531 0)
(11.0519 0.406449 0)
(11.0271 0.438213 0)
(11.0758 0.481616 0)
(11.0611 0.518864 0)
(11.1012 0.569845 0)
(11.0953 0.612651 0)
(11.1263 0.671074 0)
(11.1282 0.722618 0)
(11.1488 0.785358 0)
(11.1557 0.850285 0)
(11.1635 0.919985 0)
(11.1736 0.996542 0)
(11.1618 1.08413 0)
(11.1742 1.17252 0)
(11.1382 1.28279 0)
(11.1463 1.39513 0)
(11.088 1.52428 0)
(11.0828 1.67302 0)
(11.006 1.81503 0)
(10.9769 1.99957 0)
(10.8795 2.14426 0)
(10.8094 2.34649 0)
(10.6672 2.48099 0)
(10.5263 2.68103 0)
(10.2952 2.79517 0)
(10.0359 2.9783 0)
(10.0029 0.00430018 0)
(10.0013 0.0141248 0)
(10.0131 0.0218749 0)
(10.0197 0.0301424 0)
(10.0359 0.0360058 0)
(10.0502 0.0416233 0)
(10.0692 0.0450986 0)
(10.089 0.0482506 0)
(10.1086 0.0500316 0)
(10.1313 0.0519476 0)
(10.1506 0.0532798 0)
(10.1744 0.0547297 0)
(10.1938 0.0562127 0)
(10.2179 0.0573458 0)
(10.2384 0.0590062 0)
(10.2624 0.0598862 0)
(10.2842 0.061219 0)
(10.3077 0.062107 0)
(10.331 0.0629258 0)
(10.3539 0.0643774 0)
(10.3782 0.0645816 0)
(10.4004 0.0668506 0)
(10.4248 0.0663267 0)
(10.4474 0.0695823 0)
(10.471 0.0686365 0)
(10.4946 0.0724218 0)
(10.5166 0.0719239 0)
(10.5411 0.0751474 0)
(10.5619 0.07642 0)
(10.5869 0.0782318 0)
(10.6065 0.0819785 0)
(10.6316 0.0823422 0)
(10.6505 0.088593 0)
(10.6745 0.0878176 0)
(10.6944 0.0967909 0)
(10.7147 0.0948783 0)
(10.7385 0.106851 0)
(10.7519 0.104414 0)
(10.7823 0.118588 0)
(10.7866 0.117661 0)
(10.8255 0.132156 0)
(10.819 0.135222 0)
(10.8674 0.148689 0)
(10.8497 0.157173 0)
(10.9074 0.169677 0)
(10.88 0.183992 0)
(10.9444 0.196233 0)
(10.9114 0.216976 0)
(10.9779 0.228922 0)
(10.9445 0.257846 0)
(11.0086 0.268643 0)
(10.9795 0.307504 0)
(11.0379 0.318 0)
(11.0167 0.365502 0)
(11.0659 0.380025 0)
(11.0574 0.432114 0)
(11.0935 0.455409 0)
(11.1006 0.510762 0)
(11.1232 0.543236 0)
(11.1437 0.603539 0)
(11.155 0.647047 0)
(11.1871 0.70858 0)
(11.1847 0.772852 0)
(11.2295 0.830136 0)
(11.2101 0.919885 0)
(11.265 0.981471 0)
(11.2279 1.08983 0)
(11.289 1.17068 0)
(11.2302 1.29803 0)
(11.2964 1.40107 0)
(11.2133 1.55926 0)
(11.2791 1.68184 0)
(11.1728 1.8754 0)
(11.2287 2.01986 0)
(11.0995 2.23471 0)
(11.1258 2.40722 0)
(10.9702 2.62037 0)
(10.9364 2.82531 0)
(10.7326 3.0147 0)
(10.5972 3.25482 0)
(10.0022 0.00188932 0)
(10.0018 0.00916322 0)
(10.0114 0.012103 0)
(10.019 0.0186414 0)
(10.0325 0.0206047 0)
(10.0479 0.0256518 0)
(10.0635 0.0264468 0)
(10.0853 0.0297749 0)
(10.1012 0.029857 0)
(10.1275 0.0320363 0)
(10.1421 0.0322883 0)
(10.1711 0.0335209 0)
(10.1844 0.0346 0)
(10.2152 0.0349091 0)
(10.2283 0.0370284 0)
(10.2599 0.0364069 0)
(10.2735 0.0390397 0)
(10.3053 0.0379595 0)
(10.3202 0.0407278 0)
(10.3513 0.0399278 0)
(10.3677 0.0423378 0)
(10.3973 0.0423272 0)
(10.4154 0.0439467 0)
(10.4434 0.0453214 0)
(10.4629 0.0460128 0)
(10.4895 0.0487111 0)
(10.5099 0.0490183 0)
(10.5352 0.0521485 0)
(10.5567 0.053433 0)
(10.5803 0.0559416 0)
(10.6028 0.0590939 0)
(10.6248 0.0608887 0)
(10.6479 0.0657512 0)
(10.6682 0.0675397 0)
(10.6925 0.0739674 0)
(10.7095 0.0756582 0)
(10.7373 0.0846531 0)
(10.7483 0.0855106 0)
(10.7819 0.0977924 0)
(10.7852 0.098625 0)
(10.8252 0.112882 0)
(10.8212 0.116336 0)
(10.8669 0.130342 0)
(10.8565 0.139331 0)
(10.9068 0.1508 0)
(10.8914 0.168882 0)
(10.9453 0.174636 0)
(10.9265 0.206029 0)
(10.9821 0.20384 0)
(10.9629 0.249845 0)
(11.0172 0.241992 0)
(11.0018 0.299569 0)
(11.0509 0.290783 0)
(11.0443 0.357395 0)
(11.0834 0.350517 0)
(11.0912 0.42441 0)
(11.1156 0.425026 0)
(11.143 0.497928 0)
(11.1478 0.519165 0)
(11.1988 0.580967 0)
(11.1814 0.629008 0)
(11.2558 0.685116 0)
(11.2184 0.751432 0)
(11.3097 0.814605 0)
(11.2581 0.89768 0)
(11.3578 0.96802 0)
(11.2964 1.07827 0)
(11.3974 1.1566 0)
(11.3267 1.29671 0)
(11.4256 1.39538 0)
(11.3433 1.56253 0)
(11.435 1.69182 0)
(11.3398 1.88751 0)
(11.4159 2.04717 0)
(11.3046 2.27521 0)
(11.3509 2.45906 0)
(11.2205 2.71808 0)
(11.209 2.91758 0)
(11.0552 3.21333 0)
(10.948 3.39505 0)
(10.0009 -0.000134446 0)
(10.003 0.00420856 0)
(10.0094 0.00324668 0)
(10.0199 0.00729422 0)
(10.0297 0.00638197 0)
(10.0481 0.00958627 0)
(10.0596 0.00885897 0)
(10.0849 0.0108539 0)
(10.0964 0.0105091 0)
(10.127 0.0116711 0)
(10.1368 0.0117329 0)
(10.1707 0.0123074 0)
(10.1791 0.0129364 0)
(10.2149 0.0130801 0)
(10.2231 0.0144453 0)
(10.2592 0.0138909 0)
(10.2686 0.0159306 0)
(10.3042 0.0148418 0)
(10.3158 0.0176279 0)
(10.3498 0.0162762 0)
(10.3638 0.0194678 0)
(10.3956 0.0181871 0)
(10.4118 0.0213971 0)
(10.442 0.0209254 0)
(10.4595 0.0236769 0)
(10.4884 0.0243749 0)
(10.507 0.0267294 0)
(10.534 0.0281921 0)
(10.5549 0.0312638 0)
(10.5785 0.0323242 0)
(10.6028 0.0374584 0)
(10.6224 0.0372816 0)
(10.6492 0.0450734 0)
(10.6667 0.0439126 0)
(10.6939 0.0540531 0)
(10.7103 0.0526753 0)
(10.7379 0.0647797 0)
(10.7522 0.0639113 0)
(10.782 0.0775671 0)
(10.7921 0.078571 0)
(10.8258 0.0921496 0)
(10.8306 0.0980417 0)
(10.8692 0.108863 0)
(10.8676 0.122357 0)
(10.9123 0.129969 0)
(10.9038 0.150457 0)
(10.9545 0.157401 0)
(10.9414 0.183395 0)
(10.9944 0.190764 0)
(10.982 0.223743 0)
(11.0327 0.230597 0)
(11.0251 0.271321 0)
(11.071 0.281038 0)
(11.072 0.323901 0)
(11.108 0.345063 0)
(11.1262 0.384565 0)
(11.1428 0.419456 0)
(11.1873 0.460842 0)
(11.1797 0.502542 0)
(11.2516 0.553232 0)
(11.2206 0.603797 0)
(11.3201 0.657221 0)
(11.2634 0.730758 0)
(11.3914 0.779928 0)
(11.3112 0.881549 0)
(11.4581 0.935328 0)
(11.3663 1.05899 0)
(11.5156 1.13426 0)
(11.4246 1.27311 0)
(11.5612 1.38422 0)
(11.4791 1.54167 0)
(11.5888 1.6909 0)
(11.5225 1.87543 0)
(11.5854 2.06733 0)
(11.54 2.2811 0)
(11.539 2.50988 0)
(11.5018 2.77152 0)
(11.4381 3.01053 0)
(11.3583 3.32739 0)
(11.2551 3.5964 0)
(9.99953 -0.0019458 0)
(10.0044 -0.000917878 0)
(10.0078 -0.00527746 0)
(10.0214 -0.00398879 0)
(10.0283 -0.00752179 0)
(10.0495 -0.0064004 0)
(10.0584 -0.00857764 0)
(10.0861 -0.00805364 0)
(10.0958 -0.00869563 0)
(10.1276 -0.00889443 0)
(10.137 -0.00847541 0)
(10.1707 -0.0094195 0)
(10.18 -0.00797368 0)
(10.2145 -0.00964028 0)
(10.2245 -0.00707572 0)
(10.2585 -0.00978442 0)
(10.2703 -0.00600022 0)
(10.3034 -0.00942863 0)
(10.318 -0.00449719 0)
(10.3489 -0.00830153 0)
(10.3666 -0.00285273 0)
(10.3943 -0.00643513 0)
(10.4153 -0.00114608 0)
(10.4408 -0.00345759 0)
(10.4632 0.000825513 0)
(10.4882 0.000330631 0)
(10.51 0.00379079 0)
(10.5356 0.00432076 0)
(10.5572 0.00875149 0)
(10.5817 0.00836918 0)
(10.605 0.0156179 0)
(10.6264 0.0135208 0)
(10.6523 0.0233863 0)
(10.6711 0.0212629 0)
(10.6982 0.0316159 0)
(10.7156 0.0318691 0)
(10.7431 0.0413329 0)
(10.7589 0.0447348 0)
(10.7881 0.0538023 0)
(10.8008 0.0600655 0)
(10.8327 0.0692014 0)
(10.8424 0.0788922 0)
(10.8757 0.0877494 0)
(10.8844 0.101779 0)
(10.9178 0.110509 0)
(10.9262 0.129072 0)
(10.96 0.138388 0)
(10.9687 0.161456 0)
(11.0011 0.172466 0)
(11.0149 0.199386 0)
(11.0397 0.214105 0)
(11.0662 0.244106 0)
(11.0779 0.263076 0)
(11.1207 0.299648 0)
(11.119 0.317523 0)
(11.1788 0.368083 0)
(11.1619 0.382579 0)
(11.2445 0.444543 0)
(11.2061 0.466628 0)
(11.3157 0.530048 0)
(11.2581 0.567068 0)
(11.3881 0.636857 0)
(11.3188 0.682176 0)
(11.4649 0.768248 0)
(11.3853 0.824842 0)
(11.5434 0.923233 0)
(11.4636 1.00616 0)
(11.6154 1.11374 0)
(11.5524 1.23033 0)
(11.681 1.35769 0)
(11.643 1.50836 0)
(11.7368 1.66287 0)
(11.7201 1.86524 0)
(11.7812 2.03588 0)
(11.7578 2.30593 0)
(11.7982 2.50966 0)
(11.738 2.80894 0)
(11.7445 3.10451 0)
(11.6495 3.38157 0)
(11.5622 3.764 0)
(9.99945 -0.00368709 0)
(10.0043 -0.00636747 0)
(10.0084 -0.013815 0)
(10.0217 -0.0156129 0)
(10.0302 -0.0214976 0)
(10.0502 -0.022805 0)
(10.062 -0.0259518 0)
(10.087 -0.027428 0)
(10.1008 -0.0275503 0)
(10.1283 -0.0301089 0)
(10.1428 -0.0281571 0)
(10.1713 -0.0317739 0)
(10.1862 -0.028605 0)
(10.2153 -0.0325641 0)
(10.2304 -0.0290522 0)
(10.2602 -0.0328694 0)
(10.2755 -0.0290957 0)
(10.3064 -0.0325322 0)
(10.3226 -0.0281214 0)
(10.3528 -0.0317586 0)
(10.3712 -0.026419 0)
(10.3986 -0.0304684 0)
(10.4208 -0.0243125 0)
(10.4446 -0.0279607 0)
(10.4698 -0.0221463 0)
(10.492 -0.0241255 0)
(10.5171 -0.0194489 0)
(10.5407 -0.0193994 0)
(10.5638 -0.0150969 0)
(10.5883 -0.0143438 0)
(10.6117 -0.00860164 0)
(10.6336 -0.00861873 0)
(10.6606 -0.000401276 0)
(10.6782 -0.00104097 0)
(10.7079 0.00892726 0)
(10.7238 0.00905789 0)
(10.7532 0.0199247 0)
(10.7696 0.0213733 0)
(10.7979 0.0335513 0)
(10.8144 0.0363249 0)
(10.8426 0.0496155 0)
(10.8589 0.0555496 0)
(10.886 0.0676853 0)
(10.9045 0.0794253 0)
(10.9286 0.0898766 0)
(10.9502 0.106404 0)
(10.9722 0.118428 0)
(10.9961 0.137682 0)
(11.016 0.15128 0)
(11.0453 0.178032 0)
(11.0582 0.186725 0)
(11.1 0.226967 0)
(11.1009 0.231887 0)
(11.158 0.277548 0)
(11.1483 0.293495 0)
(11.218 0.333005 0)
(11.2024 0.363413 0)
(11.2809 0.407221 0)
(11.2653 0.437451 0)
(11.3458 0.498742 0)
(11.3407 0.530255 0)
(11.4121 0.59947 0)
(11.4283 0.650412 0)
(11.4856 0.716827 0)
(11.5212 0.799715 0)
(11.5739 0.858675 0)
(11.6168 0.987331 0)
(11.6764 1.0361 0)
(11.7142 1.2182 0)
(11.7926 1.27181 0)
(11.8089 1.49693 0)
(11.9136 1.5911 0)
(11.8998 1.83322 0)
(12.018 2.01599 0)
(11.977 2.25295 0)
(12.0779 2.53578 0)
(12.0188 2.81203 0)
(12.0587 3.12246 0)
(11.9735 3.51249 0)
(11.9436 3.82112 0)
(10.0002 -0.0051451 0)
(10.0035 -0.0128452 0)
(10.0103 -0.0223186 0)
(10.0221 -0.0285481 0)
(10.034 -0.0356167 0)
(10.0524 -0.0402622 0)
(10.0679 -0.0435005 0)
(10.0908 -0.0471527 0)
(10.1083 -0.046876 0)
(10.1326 -0.0509358 0)
(10.1511 -0.0488325 0)
(10.1756 -0.0531186 0)
(10.1951 -0.0507606 0)
(10.2198 -0.0541799 0)
(10.2394 -0.0528313 0)
(10.2654 -0.0544951 0)
(10.2843 -0.0540184 0)
(10.3133 -0.0542119 0)
(10.3304 -0.0534589 0)
(10.3615 -0.0541323 0)
(10.3781 -0.0512561 0)
(10.4085 -0.0540311 0)
(10.4281 -0.0482296 0)
(10.4543 -0.0523782 0)
(10.4789 -0.0459243 0)
(10.5004 -0.0481104 0)
(10.5285 -0.044211 0)
(10.5484 -0.0420204 0)
(10.5763 -0.0408903 0)
(10.597 -0.0361063 0)
(10.624 -0.0343258 0)
(10.6444 -0.0305439 0)
(10.6723 -0.0252344 0)
(10.6911 -0.0233249 0)
(10.7197 -0.0152582 0)
(10.7386 -0.0129029 0)
(10.7652 -0.00446934 0)
(10.7863 0.000540486 0)
(10.8111 0.00847142 0)
(10.8319 0.0164898 0)
(10.8588 0.02451 0)
(10.8759 0.0354219 0)
(10.9062 0.0433828 0)
(10.9215 0.0589365 0)
(10.9521 0.064858 0)
(10.9685 0.0871298 0)
(10.999 0.0915008 0)
(11.0153 0.117764 0)
(11.0481 0.12687 0)
(11.0644 0.150214 0)
(11.0965 0.170591 0)
(11.1198 0.188928 0)
(11.146 0.219168 0)
(11.1771 0.237862 0)
(11.2052 0.273716 0)
(11.2324 0.296269 0)
(11.2743 0.339199 0)
(11.2934 0.363009 0)
(11.3482 0.418585 0)
(11.3633 0.441248 0)
(11.4328 0.514029 0)
(11.4384 0.535181 0)
(11.5294 0.626788 0)
(11.5294 0.655006 0)
(11.6259 0.757765 0)
(11.6486 0.807334 0)
(11.7234 0.921143 0)
(11.7882 0.997812 0)
(11.8343 1.12382 0)
(11.9418 1.25079 0)
(11.9591 1.38026 0)
(12.1003 1.57033 0)
(12.1011 1.73995 0)
(12.2453 1.95708 0)
(12.2366 2.22528 0)
(12.3673 2.47235 0)
(12.3211 2.80232 0)
(12.4353 3.17239 0)
(12.3031 3.4878 0)
(12.3832 3.98793 0)
(10.0004 -0.00682135 0)
(10.0038 -0.0200961 0)
(10.0124 -0.0320387 0)
(10.0244 -0.0425254 0)
(10.0389 -0.0513447 0)
(10.0579 -0.0579662 0)
(10.0759 -0.0624686 0)
(10.0991 -0.0662396 0)
(10.1179 -0.067475 0)
(10.142 -0.0709439 0)
(10.1615 -0.0704103 0)
(10.185 -0.0741811 0)
(10.2064 -0.0732223 0)
(10.2287 -0.07622 0)
(10.2519 -0.0763841 0)
(10.2743 -0.0766788 0)
(10.2977 -0.078879 0)
(10.3231 -0.0757906 0)
(10.3437 -0.0797667 0)
(10.373 -0.0751535 0)
(10.3905 -0.0783437 0)
(10.4218 -0.0753217 0)
(10.44 -0.0747856 0)
(10.4686 -0.075056 0)
(10.4914 -0.0710021 0)
(10.5148 -0.0724206 0)
(10.5422 -0.068081 0)
(10.5629 -0.0669132 0)
(10.5907 -0.0648128 0)
(10.6125 -0.060172 0)
(10.6387 -0.0592604 0)
(10.661 -0.0532309 0)
(10.6882 -0.0510974 0)
(10.7077 -0.0449991 0)
(10.7381 -0.0414375 0)
(10.7546 -0.034334 0)
(10.7861 -0.0300911 0)
(10.8031 -0.0216467 0)
(10.833 -0.0156993 0)
(10.8512 -0.00679821 0)
(10.8809 0.00104683 0)
(10.898 0.0123378 0)
(10.9294 0.0192992 0)
(10.946 0.0357738 0)
(10.9763 0.0420803 0)
(10.9962 0.0598382 0)
(11.0245 0.0733631 0)
(11.0451 0.0850894 0)
(11.0784 0.109134 0)
(11.0925 0.120413 0)
(11.1352 0.142135 0)
(11.1469 0.169178 0)
(11.1885 0.179996 0)
(11.2115 0.217855 0)
(11.246 0.237846 0)
(11.2765 0.262762 0)
(11.3167 0.309397 0)
(11.3462 0.322532 0)
(11.3895 0.380405 0)
(11.4372 0.406493 0)
(11.4619 0.457501 0)
(11.5408 0.509574 0)
(11.5551 0.548762 0)
(11.6472 0.638004 0)
(11.669 0.657397 0)
(11.7724 0.794861 0)
(11.7983 0.803262 0)
(11.9158 0.974623 0)
(11.9551 1.01106 0)
(12.0789 1.18828 0)
(12.1318 1.28736 0)
(12.2718 1.48435 0)
(12.3202 1.62913 0)
(12.4824 1.90802 0)
(12.5032 2.08555 0)
(12.6917 2.44214 0)
(12.6556 2.75893 0)
(12.8039 3.08117 0)
(12.7778 3.63125 0)
(12.7487 3.93046 0)
(10.0002 -0.00938143 0)
(10.0049 -0.0283557 0)
(10.0154 -0.0440531 0)
(10.0288 -0.0584932 0)
(10.0466 -0.0689675 0)
(10.0669 -0.0770223 0)
(10.0881 -0.0818558 0)
(10.1115 -0.0862267 0)
(10.1321 -0.0873708 0)
(10.1556 -0.0922369 0)
(10.1767 -0.0905342 0)
(10.1984 -0.0973439 0)
(10.223 -0.0935514 0)
(10.2411 -0.100903 0)
(10.2708 -0.0972057 0)
(10.2859 -0.101538 0)
(10.3191 -0.101042 0)
(10.3343 -0.0995619 0)
(10.3659 -0.104012 0)
(10.3853 -0.0975335 0)
(10.4117 -0.104136 0)
(10.4369 -0.0973492 0)
(10.4592 -0.100515 0)
(10.4868 -0.0982438 0)
(10.5089 -0.09536 0)
(10.5351 -0.0973143 0)
(10.5596 -0.0910509 0)
(10.5839 -0.0929404 0)
(10.6094 -0.0870792 0)
(10.6336 -0.0865611 0)
(10.6589 -0.081365 0)
(10.6824 -0.0794431 0)
(10.7098 -0.0733935 0)
(10.7297 -0.0708592 0)
(10.7609 -0.0638232 0)
(10.7777 -0.0602485 0)
(10.8102 -0.0519551 0)
(10.8273 -0.0483342 0)
(10.8585 -0.0361819 0)
(10.8769 -0.0357504 0)
(10.9073 -0.0162486 0)
(10.9263 -0.0205744 0)
(10.9553 0.00509845 0)
(10.9788 0.00145225 0)
(11.0003 0.0247741 0)
(11.035 0.0317092 0)
(11.0464 0.0462479 0)
(11.0894 0.0637715 0)
(11.1008 0.0783342 0)
(11.1389 0.0932851 0)
(11.1625 0.119339 0)
(11.1936 0.130332 0)
(11.2202 0.158861 0)
(11.2633 0.181582 0)
(11.2754 0.20247 0)
(11.3417 0.235389 0)
(11.3406 0.261772 0)
(11.4243 0.294515 0)
(11.4157 0.326694 0)
(11.5202 0.374882 0)
(11.5009 0.396202 0)
(11.6227 0.469732 0)
(11.6156 0.488366 0)
(11.7257 0.57501 0)
(11.7575 0.60551 0)
(11.85 0.705425 0)
(11.9186 0.749263 0)
(12.0032 0.871106 0)
(12.1052 0.934124 0)
(12.1945 1.08283 0)
(12.3186 1.18648 0)
(12.4256 1.34327 0)
(12.5774 1.56808 0)
(12.6595 1.67261 0)
(12.8951 2.08856 0)
(12.8841 2.21663 0)
(13.1711 2.69803 0)
(13.1371 3.0612 0)
(13.2649 3.48656 0)
(13.3235 4.12788 0)
(9.9997 -0.0129205 0)
(10.0074 -0.0389861 0)
(10.0196 -0.059568 0)
(10.0373 -0.0778503 0)
(10.0586 -0.0896712 0)
(10.0819 -0.0981864 0)
(10.1064 -0.103319 0)
(10.1294 -0.107331 0)
(10.1533 -0.109077 0)
(10.1737 -0.11428 0)
(10.1993 -0.112615 0)
(10.2162 -0.121325 0)
(10.2469 -0.115462 0)
(10.259 -0.126681 0)
(10.2961 -0.118358 0)
(10.3046 -0.128303 0)
(10.3452 -0.122119 0)
(10.3543 -0.126161 0)
(10.3915 -0.126402 0)
(10.4071 -0.122651 0)
(10.436 -0.128779 0)
(10.4612 -0.120555 0)
(10.4818 -0.127077 0)
(10.5134 -0.120453 0)
(10.5305 -0.122325 0)
(10.5632 -0.120054 0)
(10.5811 -0.11696 0)
(10.6127 -0.11713 0)
(10.6315 -0.111509 0)
(10.6627 -0.11203 0)
(10.6817 -0.104803 0)
(10.7119 -0.105373 0)
(10.7329 -0.0967363 0)
(10.7606 -0.0964363 0)
(10.7834 -0.0876049 0)
(10.8104 -0.0853991 0)
(10.8321 -0.075735 0)
(10.861 -0.0736324 0)
(10.8811 -0.0598924 0)
(10.9098 -0.0601143 0)
(10.9321 -0.042377 0)
(10.958 -0.0406964 0)
(10.9822 -0.0267181 0)
(11.0104 -0.0134782 0)
(11.0275 -0.0103683 0)
(11.0695 0.0148788 0)
(11.0712 0.0172445 0)
(11.1293 0.0348863 0)
(11.1236 0.0600197 0)
(11.1821 0.0537455 0)
(11.187 0.10226 0)
(11.239 0.0921648 0)
(11.2457 0.130368 0)
(11.3152 0.151303 0)
(11.301 0.162263 0)
(11.3947 0.20646 0)
(11.3823 0.217181 0)
(11.4614 0.256876 0)
(11.4873 0.284572 0)
(11.5437 0.321554 0)
(11.5897 0.357525 0)
(11.6541 0.399539 0)
(11.7101 0.448998 0)
(11.7687 0.489693 0)
(11.8685 0.559818 0)
(11.9012 0.600029 0)
(12.0526 0.705801 0)
(12.0668 0.723485 0)
(12.2796 0.904094 0)
(12.2608 0.887947 0)
(12.5571 1.13584 0)
(12.5248 1.16907 0)
(12.8445 1.38139 0)
(12.9051 1.6211 0)
(13.1242 1.74506 0)
(13.3675 2.21928 0)
(13.4112 2.41782 0)
(13.7492 2.95789 0)
(13.7516 3.49835 0)
(13.8717 3.99158 0)
(9.99826 -0.0190467 0)
(10.012 -0.0524495 0)
(10.0265 -0.0805685 0)
(10.0522 -0.100431 0)
(10.078 -0.11474 0)
(10.1051 -0.121623 0)
(10.1341 -0.128367 0)
(10.1545 -0.130988 0)
(10.1845 -0.135098 0)
(10.1974 -0.139794 0)
(10.2321 -0.140029 0)
(10.2397 -0.148955 0)
(10.2801 -0.142876 0)
(10.2846 -0.15577 0)
(10.3278 -0.144627 0)
(10.3336 -0.158485 0)
(10.3734 -0.147595 0)
(10.3864 -0.156876 0)
(10.4158 -0.15216 0)
(10.441 -0.152696 0)
(10.457 -0.156024 0)
(10.4954 -0.148544 0)
(10.5 -0.156989 0)
(10.5475 -0.145184 0)
(10.545 -0.155656 0)
(10.5974 -0.141146 0)
(10.591 -0.153086 0)
(10.6465 -0.13617 0)
(10.6371 -0.147884 0)
(10.694 -0.131935 0)
(10.6846 -0.138896 0)
(10.7381 -0.127286 0)
(10.7346 -0.129256 0)
(10.7799 -0.117933 0)
(10.784 -0.1218 0)
(10.8226 -0.103646 0)
(10.8312 -0.112911 0)
(10.865 -0.0894863 0)
(10.8804 -0.097135 0)
(10.9024 -0.0784051 0)
(10.9348 -0.0741176 0)
(10.9367 -0.0668843 0)
(10.9883 -0.0505104 0)
(10.9793 -0.0457277 0)
(11.0297 -0.0347091 0)
(11.0398 -0.0108997 0)
(11.0597 -0.0221167 0)
(11.107 0.0243104 0)
(11.1022 0.00488059 0)
(11.1571 0.0470727 0)
(11.1741 0.0487337 0)
(11.1956 0.071617 0)
(11.253 0.0864485 0)
(11.2573 0.117768 0)
(11.318 0.116662 0)
(11.3385 0.171093 0)
(11.4008 0.163684 0)
(11.4119 0.214186 0)
(11.5144 0.233414 0)
(11.4967 0.257858 0)
(11.633 0.314463 0)
(11.6128 0.312663 0)
(11.7705 0.404468 0)
(11.7433 0.389459 0)
(11.939 0.498324 0)
(11.9144 0.495589 0)
(12.1189 0.601763 0)
(12.1494 0.656812 0)
(12.312 0.687338 0)
(12.4725 0.900144 0)
(12.5321 0.815141 0)
(12.8604 1.14305 0)
(12.8822 1.12844 0)
(13.2252 1.35818 0)
(13.4522 1.64738 0)
(13.5959 1.79123 0)
(14.0375 2.27796 0)
(14.1366 2.69354 0)
(14.426 3.24481 0)
(14.622 4.07236 0)
(9.99801 -0.0265937 0)
(10.0187 -0.0700664 0)
(10.0417 -0.0992878 0)
(10.0756 -0.117593 0)
(10.1089 -0.126119 0)
(10.1383 -0.131572 0)