/*--------------------------------*- C++ -*----------------------------------*\
| =========                 |                                                 |
| \\      /  F ield         | OpenFOAM: The Open Source CFD Toolbox           |
|  \\    /   O peration     | Version:  2306                                  |
|   \\  /    A nd           | Website:  www.openfoam.com                      |
|    \\/     M anipulation  |                                                 |
\*---------------------------------------------------------------------------*/
FoamFile
{
    version     2.0;
    format      ascii;
    arch        "LSB;label=32;scalar=64";
    class       volScalarField;
    location    "0.075";
    object      p;
}
// * * * * * * * * * * * * * * * * * * * * * * * * * * * * * * * * * * * * * //

dimensions      [0 2 -2 0 0 0 0];

internalField   nonuniform List<scalar> 
17600
(
406.523
404.479
402.701
401.471
400.707
400.2
399.783
399.375
398.957
398.534
398.113
397.7
397.296
396.899
396.507
396.119
395.738
395.365
395.004
394.657
394.328
394.02
393.735
393.476
393.242
393.034
392.851
392.692
392.554
392.434
392.331
392.241
392.161
392.089
392.024
391.962
391.902
391.844
391.785
391.726
391.666
391.605
391.541
391.476
391.41
391.342
391.273
391.202
391.131
391.059
390.986
390.913
390.84
390.767
390.694
390.621
390.549
390.478
390.407
390.337
390.269
390.201
390.134
390.069
390.004
389.941
389.88
389.82
389.761
389.704
389.649
389.595
389.543
389.493
389.444
389.397
389.353
389.31
389.269
389.23
389.194
389.159
389.127
389.097
389.069
389.044
389.021
389
388.982
388.967
388.954
388.944
388.937
388.933
388.932
388.934
388.939
388.948
388.96
388.976
388.995
389.019
389.047
389.079
389.116
389.158
389.205
389.257
389.315
389.379
389.449
389.526
389.61
389.702
389.801
389.909
390.025
390.151
390.286
390.432
390.588
390.754
390.933
391.123
391.325
391.54
391.769
392.01
392.265
392.534
392.817
393.114
393.425
393.75
394.09
394.442
394.808
395.187
395.577
395.978
396.388
396.807
397.233
397.664
398.097
398.531
398.963
399.39
399.808
400.216
400.609
400.985
401.34
401.673
401.982
402.264
402.518
402.743
402.937
403.1
403.793
403.024
402.097
401.233
400.542
400.019
399.599
399.217
398.836
398.447
398.053
397.658
397.268
396.883
396.503
396.129
395.761
395.4
395.051
394.716
394.397
394.097
393.818
393.562
393.33
393.122
392.937
392.774
392.632
392.508
392.399
392.304
392.219
392.142
392.071
392.004
391.94
391.877
391.815
391.753
391.69
391.626
391.561
391.494
391.426
391.357
391.286
391.215
391.142
391.07
390.996
390.923
390.849
390.775
390.702
390.629
390.557
390.485
390.414
390.344
390.275
390.206
390.139
390.074
390.009
389.946
389.884
389.824
389.765
389.708
389.652
389.598
389.546
389.495
389.446
389.4
389.355
389.312
389.271
389.232
389.195
389.16
389.128
389.098
389.07
389.044
389.021
389.001
388.983
388.967
388.954
388.944
388.937
388.933
388.932
388.934
388.939
388.948
388.96
388.975
388.995
389.019
389.047
389.079
389.116
389.158
389.205
389.257
389.315
389.379
389.449
389.527
389.611
389.702
389.802
389.91
390.026
390.152
390.288
390.433
390.59
390.757
390.936
391.126
391.329
391.545
391.774
392.016
392.272
392.542
392.827
393.125
393.438
393.766
394.107
394.462
394.831
395.212
395.606
396.011
396.425
396.849
397.279
397.714
398.151
398.589
399.024
399.452
399.872
400.279
400.67
401.041
401.391
401.718
402.02
402.296
402.547
402.77
402.964
403.127
402.489
402.14
401.61
400.998
400.406
399.892
399.459
399.079
398.718
398.356
397.988
397.615
397.243
396.875
396.512
396.156
395.807
395.466
395.135
394.816
394.512
394.225
393.955
393.706
393.476
393.268
393.08
392.912
392.762
392.628
392.51
392.404
392.308
392.221
392.14
392.064
391.992
391.922
391.853
391.785
391.717
391.648
391.579
391.51
391.439
391.368
391.296
391.224
391.15
391.077
391.003
390.929
390.855
390.782
390.708
390.635
390.563
390.491
390.42
390.349
390.28
390.212
390.145
390.079
390.014
389.951
389.889
389.828
389.769
389.712
389.656
389.602
389.549
389.498
389.449
389.402
389.357
389.313
389.272
389.232
389.195
389.16
389.127
389.097
389.068
389.042
389.019
388.997
388.979
388.963
388.949
388.939
388.931
388.926
388.924
388.925
388.93
388.938
388.949
388.964
388.982
389.005
389.032
389.063
389.099
389.14
389.185
389.236
389.293
389.356
389.425
389.5
389.583
389.672
389.77
389.876
389.991
390.114
390.247
390.391
390.544
390.709
390.885
391.073
391.273
391.486
391.712
391.951
392.204
392.471
392.753
393.048
393.358
393.683
394.022
394.375
394.742
395.122
395.514
395.918
396.333
396.757
397.189
397.627
398.068
398.51
398.951
399.388
399.817
400.234
400.638
401.024
401.391
401.734
402.052
402.342
402.601
402.827
403.019
403.175
401.586
401.394
401.061
400.625
400.15
399.694
399.283
398.915
398.571
398.234
397.894
397.548
397.2
396.854
396.511
396.174
395.845
395.523
395.211
394.91
394.621
394.346
394.087
393.845
393.62
393.414
393.225
393.054
392.898
392.758
392.632
392.517
392.412
392.315
392.225
392.141
392.06
391.982
391.906
391.832
391.758
391.684
391.611
391.538
391.465
391.391
391.317
391.243
391.168
391.093
391.018
390.944
390.869
390.795
390.721
390.647
390.574
390.502
390.431
390.36
390.291
390.222
390.155
390.089
390.024
389.96
389.898
389.837
389.777
389.719
389.663
389.608
389.555
389.504
389.454
389.407
389.361
389.317
389.275
389.235
389.197
389.161
389.127
389.095
389.066
389.039
389.015
388.992
388.973
388.955
388.941
388.929
388.92
388.913
388.91
388.91
388.913
388.919
388.928
388.942
388.958
388.979
389.004
389.033
389.067
389.105
389.148
389.197
389.251
389.31
389.376
389.448
389.528
389.614
389.708
389.81
389.92
390.039
390.167
390.306
390.454
390.613
390.783
390.965
391.159
391.365
391.584
391.816
392.062
392.321
392.594
392.882
393.184
393.501
393.832
394.177
394.536
394.909
395.295
395.693
396.102
396.522
396.95
397.386
397.826
398.27
398.714
399.156
399.593
400.021
400.438
400.84
401.223
401.586
401.924
402.234
402.516
402.766
402.985
403.171
400.9
400.775
400.547
400.23
399.858
399.473
399.102
398.757
398.431
398.115
397.799
397.479
397.155
396.83
396.507
396.19
395.878
395.574
395.279
394.993
394.718
394.455
394.206
393.971
393.751
393.547
393.358
393.185
393.026
392.881
392.748
392.626
392.513
392.408
392.31
392.218
392.129
392.045
391.962
391.882
391.803
391.725
391.647
391.571
391.494
391.418
391.341
391.265
391.189
391.112
391.036
390.96
390.885
390.81
390.735
390.661
390.588
390.516
390.444
390.373
390.303
390.234
390.167
390.1
390.035
389.971
389.908
389.847
389.787
389.729
389.672
389.617
389.563
389.511
389.461
389.413
389.366
389.321
389.278
389.237
389.198
389.162
389.127
389.094
389.064
389.035
389.009
388.986
388.964
388.946
388.929
388.916
388.905
388.897
388.891
388.889
388.889
388.893
388.9
388.911
388.925
388.943
388.965
388.991
389.021
389.056
389.096
389.14
389.19
389.246
389.307
389.375
389.449
389.53
389.618
389.714
389.818
389.931
390.052
390.183
390.323
390.474
390.635
390.807
390.991
391.187
391.395
391.616
391.85
392.097
392.357
392.632
392.921
393.223
393.54
393.871
394.216
394.574
394.946
395.33
395.726
396.133
396.55
396.975
397.407
397.844
398.283
398.722
399.159
399.59
400.013
400.425
400.822
401.202
401.56
401.896
402.206
402.489
402.743
402.966
400.352
400.263
400.096
399.858
399.566
399.246
398.921
398.604
398.299
398.002
397.707
397.409
397.107
396.803
396.5
396.2
395.905
395.617
395.336
395.064
394.801
394.549
394.308
394.08
393.865
393.664
393.476
393.302
393.14
392.991
392.853
392.725
392.606
392.494
392.389
392.29
392.195
392.104
392.016
391.93
391.847
391.764
391.683
391.603
391.523
391.444
391.365
391.287
391.209
391.131
391.054
390.977
390.901
390.825
390.75
390.675
390.602
390.529
390.457
390.386
390.315
390.246
390.178
390.112
390.046
389.982
389.919
389.857
389.797
389.738
389.681
389.625
389.571
389.518
389.467
389.418
389.371
389.325
389.281
389.239
389.199
389.161
389.125
389.091
389.059
389.03
389.002
388.977
388.954
388.933
388.915
388.899
388.886
388.876
388.868
388.863
388.861
388.862
388.866
388.874
388.885
388.899
388.918
388.94
388.966
388.997
389.032
389.072
389.117
389.167
389.223
389.285
389.353
389.428
389.509
389.597
389.694
389.798
389.91
390.032
390.162
390.302
390.453
390.613
390.785
390.967
391.161
391.368
391.586
391.817
392.061
392.318
392.589
392.873
393.17
393.481
393.806
394.143
394.494
394.857
395.233
395.619
396.016
396.421
396.835
397.254
397.678
398.105
398.531
398.955
399.374
399.785
400.187
400.575
400.948
401.303
401.639
401.951
402.239
402.5
399.904
399.836
399.707
399.522
399.288
399.022
398.74
398.454
398.172
397.894
397.617
397.338
397.056
396.771
396.486
396.203
395.924
395.65
395.383
395.123
394.871
394.628
394.395
394.173
393.963
393.765
393.578
393.404
393.241
393.088
392.946
392.813
392.689
392.572
392.461
392.356
392.256
392.16
392.067
391.976
391.888
391.802
391.717
391.634
391.551
391.47
391.389
391.309
391.229
391.15
391.071
390.994
390.916
390.84
390.764
390.689
390.615
390.541
390.469
390.397
390.327
390.257
390.189
390.122
390.056
389.991
389.928
389.866
389.805
389.746
389.688
389.632
389.577
389.524
389.472
389.422
389.374
389.327
389.282
389.239
389.198
389.159
389.122
389.086
389.053
389.022
388.992
388.965
388.941
388.918
388.898
388.88
388.864
388.851
388.841
388.833
388.829
388.827
388.828
388.832
388.839
388.85
388.864
388.883
388.904
388.931
388.961
388.996
389.035
389.08
389.129
389.185
389.246
389.313
389.386
389.467
389.554
389.649
389.752
389.862
389.982
390.11
390.248
390.395
390.552
390.72
390.898
391.087
391.288
391.501
391.726
391.963
392.212
392.474
392.748
393.036
393.336
393.648
393.973
394.31
394.659
395.019
395.389
395.768
396.156
396.55
396.95
397.354
397.761
398.167
398.571
398.972
399.366
399.751
400.126
400.489
400.836
401.167
401.478
401.766
399.529
399.475
399.372
399.223
399.031
398.808
398.562
398.307
398.048
397.789
397.529
397.268
397.003
396.737
396.468
396.201
395.936
395.675
395.42
395.17
394.928
394.694
394.469
394.253
394.047
393.852
393.667
393.492
393.328
393.174
393.029
392.893
392.764
392.642
392.527
392.417
392.312
392.211
392.114
392.019
391.927
391.838
391.75
391.663
391.578
391.494
391.411
391.329
391.248
391.168
391.088
391.009
390.931
390.854
390.777
390.701
390.627
390.553
390.48
390.408
390.337
390.267
390.198
390.131
390.065
389.999
389.936
389.873
389.812
389.752
389.694
389.637
389.581
389.527
389.475
389.424
389.375
389.327
389.282
389.238
389.195
389.155
389.116
389.079
389.044
389.011
388.981
388.952
388.925
388.9
388.878
388.858
388.84
388.824
388.811
388.801
388.793
388.788
388.785
388.786
388.79
388.797
388.807
388.821
388.838
388.859
388.884
388.913
388.947
388.985
389.029
389.077
389.131
389.19
389.255
389.326
389.404
389.489
389.581
389.681
389.788
389.903
390.027
390.16
390.302
390.454
390.615
390.787
390.969
391.162
391.365
391.58
391.807
392.045
392.294
392.556
392.829
393.113
393.41
393.717
394.036
394.365
394.704
395.053
395.409
395.774
396.144
396.519
396.898
397.279
397.661
398.041
398.418
398.79
399.155
399.513
399.859
400.194
400.513
400.816
399.213
399.168
399.083
398.959
398.798
398.607
398.394
398.165
397.929
397.688
397.445
397.2
396.951
396.7
396.447
396.194
395.942
395.694
395.449
395.21
394.977
394.75
394.532
394.321
394.12
393.927
393.744
393.57
393.406
393.25
393.102
392.963
392.831
392.706
392.587
392.473
392.364
392.259
392.157
392.059
391.964
391.871
391.78
391.691
391.604
391.517
391.432
391.349
391.266
391.184
391.103
391.023
390.944
390.866
390.789
390.713
390.637
390.563
390.49
390.417
390.346
390.276
390.207
390.139
390.072
390.006
389.942
389.879
389.817
389.757
389.698
389.64
389.584
389.529
389.476
389.425
389.374
389.326
389.279
389.234
389.19
389.149
389.109
389.07
389.034
388.999
388.967
388.936
388.907
388.88
388.856
388.833
388.813
388.795
388.779
388.766
388.755
388.746
388.74
388.737
388.737
388.74
388.746
388.755
388.767
388.783
388.803
388.827
388.854
388.886
388.922
388.963
389.009
389.06
389.117
389.179
389.247
389.321
389.402
389.49
389.584
389.687
389.796
389.914
390.041
390.175
390.319
390.472
390.634
390.806
390.988
391.18
391.382
391.595
391.819
392.053
392.298
392.553
392.819
393.095
393.382
393.678
393.984
394.299
394.622
394.952
395.289
395.632
395.979
396.33
396.683
397.036
397.389
397.74
398.088
398.43
398.766
399.093
399.41
399.713
398.944
398.906
398.834
398.728
398.59
398.425
398.236
398.032
397.816
397.593
397.366
397.135
396.901
396.664
396.424
396.184
395.944
395.707
395.472
395.242
395.017
394.797
394.585
394.38
394.182
393.992
393.811
393.638
393.473
393.316
393.167
393.026
392.891
392.763
392.64
392.523
392.41
392.302
392.197
392.096
391.998
391.902
391.808
391.717
391.627
391.539
391.452
391.367
391.283
391.2
391.118
391.037
390.957
390.878
390.8
390.723
390.647
390.572
390.498
390.425
390.354
390.283
390.213
390.145
390.078
390.012
389.947
389.883
389.821
389.76
389.7
389.642
389.585
389.53
389.476
389.423
389.372
389.323
389.275
389.229
389.184
389.141
389.099
389.06
389.022
388.985
388.951
388.918
388.887
388.859
388.832
388.807
388.784
388.763
388.744
388.728
388.714
388.702
388.693
388.686
388.682
388.68
388.682
388.686
388.694
388.704
388.718
388.736
388.757
388.782
388.812
388.845
388.883
388.925
388.973
389.025
389.083
389.147
389.216
389.291
389.373
389.462
389.557
389.659
389.769
389.887
390.012
390.146
390.288
390.439
390.598
390.767
390.944
391.131
391.328
391.534
391.749
391.975
392.209
392.454
392.707
392.969
393.241
393.52
393.808
394.103
394.404
394.712
395.025
395.342
395.663
395.986
396.311
396.635
396.959
397.281
397.599
397.912
398.217
398.513
398.714
398.681
398.619
398.527
398.406
398.26
398.093
397.908
397.711
397.504
397.292
397.074
396.853
396.628
396.401
396.172
395.943
395.715
395.49
395.268
395.05
394.837
394.63
394.429
394.235
394.048
393.869
393.696
393.532
393.375
393.224
393.081
392.944
392.813
392.688
392.568
392.452
392.341
392.234
392.13
392.028
391.93
391.834
391.741
391.649
391.559
391.47
391.384
391.298
391.214
391.131
391.049
390.968
390.888
390.81
390.732
390.655
390.58
390.506
390.432
390.36
390.289
390.219
390.15
390.082
390.016
389.95
389.886
389.823
389.762
389.702
389.643
389.585
389.529
389.474
389.421
389.369
389.318
389.269
389.222
389.176
389.131
389.088
389.047
389.007
388.969
388.933
388.899
388.866
388.835
388.806
388.778
388.753
388.729
388.708
388.688
388.671
388.656
388.643
388.632
388.624
388.618
388.615
388.614
388.617
388.622
388.63
388.642
388.657
388.675
388.697
388.722
388.752
388.786
388.824
388.867
388.914
388.967
389.024
389.087
389.156
389.23
389.31
389.397
389.49
389.59
389.697
389.811
389.932
390.061
390.198
390.342
390.495
390.655
390.825
391.002
391.188
391.382
391.585
391.796
392.016
392.243
392.479
392.723
392.974
393.232
393.497
393.768
394.045
394.327
394.614
394.904
395.198
395.494
395.791
396.088
396.384
396.678
396.968
397.251
398.518
398.489
398.434
398.352
398.245
398.115
397.964
397.796
397.614
397.423
397.223
397.018
396.808
396.594
396.378
396.159
395.94
395.721
395.503
395.288
395.077
394.87
394.668
394.471
394.28
394.096
393.918
393.747
393.583
393.425
393.274
393.129
392.991
392.858
392.73
392.608
392.49
392.376
392.266
392.16
392.056
391.956
391.858
391.762
391.668
391.577
391.487
391.399
391.312
391.226
391.142
391.06
390.978
390.897
390.818
390.74
390.663
390.587
390.512
390.438
390.365
390.293
390.223
390.154
390.085
390.018
389.953
389.888
389.824
389.762
389.701
389.642
389.583
389.526
389.471
389.416
389.363
389.312
389.262
389.213
389.166
389.12
389.076
389.033
388.992
388.952
388.914
388.877
388.842
388.809
388.778
388.748
388.72
388.693
388.669
388.646
388.626
388.607
388.59
388.576
388.564
388.553
388.546
388.54
388.537
388.537
388.539
388.545
388.553
388.564
388.578
388.596
388.617
388.642
388.671
388.704
388.74
388.781
388.827
388.877
388.932
388.992
389.057
389.128
389.204
389.286
389.374
389.468
389.568
389.675
389.788
389.908
390.035
390.169
390.31
390.459
390.614
390.777
390.947
391.125
391.31
391.503
391.702
391.909
392.123
392.344
392.571
392.805
393.045
393.291
393.542
393.798
394.059
394.323
394.592
394.862
395.135
395.408
395.68
395.949
398.351
398.325
398.275
398.202
398.105
397.987
397.85
397.696
397.528
397.349
397.161
396.967
396.767
396.563
396.355
396.146
395.935
395.723
395.513
395.305
395.099
394.897
394.699
394.506
394.318
394.136
393.96
393.79
393.626
393.468
393.317
393.171
393.031
392.897
392.767
392.643
392.523
392.407
392.295
392.186
392.081
391.978
391.879
391.781
391.686
391.593
391.502
391.412
391.324
391.238
391.153
391.069
390.986
390.905
390.825
390.746
390.669
390.592
390.517
390.442
390.369
390.297
390.226
390.156
390.087
390.02
389.953
389.888
389.824
389.761
389.7
389.639
389.58
389.523
389.466
389.411
389.357
389.304
389.253
389.203
389.155
389.107
389.062
389.017
388.974
388.933
388.893
388.855
388.818
388.782
388.748
388.716
388.685
388.656
388.629
388.603
388.579
388.557
388.536
388.518
388.501
388.487
388.474
388.464
388.455
388.449
388.446
388.445
388.446
388.45
388.457
388.467
388.479
388.495
388.514
388.536
388.562
388.592
388.625
388.662
388.703
388.749
388.799
388.853
388.912
388.976
389.044
389.118
389.197
389.281
389.371
389.466
389.567
389.674
389.786
389.905
390.03
390.161
390.298
390.442
390.592
390.748
390.911
391.08
391.256
391.439
391.627
391.823
392.025
392.233
392.447
392.668
392.895
393.127
393.365
393.608
393.856
394.107
394.361
394.616
398.21
398.187
398.142
398.075
397.986
397.878
397.751
397.608
397.451
397.283
397.106
396.921
396.73
396.534
396.335
396.133
395.929
395.724
395.52
395.317
395.117
394.919
394.725
394.535
394.35
394.17
393.995
393.826
393.663
393.505
393.353
393.207
393.066
392.93
392.799
392.673
392.551
392.433
392.32
392.209
392.102
391.998
391.897
391.798
391.701
391.607
391.514
391.424
391.335
391.247
391.161
391.077
390.994
390.912
390.831
390.752
390.673
390.596
390.52
390.445
390.372
390.299
390.228
390.157
390.088
390.02
389.953
389.887
389.823
389.759
389.697
389.636
389.576
389.517
389.46
389.404
389.349
389.295
389.243
389.192
389.142
389.093
389.046
389
388.956
388.913
388.871
388.83
388.791
388.753
388.717
388.682
388.649
388.617
388.587
388.558
388.53
388.505
388.48
388.458
388.437
388.418
388.4
388.385
388.371
388.36
388.35
388.342
388.337
388.334
388.333
388.334
388.338
388.345
388.354
388.366
388.381
388.398
388.419
388.443
388.471
388.501
388.535
388.573
388.615
388.66
388.709
388.762
388.819
388.881
388.946
389.016
389.091
389.17
389.254
389.342
389.436
389.534
389.638
389.747
389.861
389.98
390.105
390.236
390.373
390.516
390.666
390.821
390.984
391.153
391.33
391.514
391.705
391.904
392.111
392.326
392.548
392.777
393.012
393.253
398.094
398.072
398.03
397.968
397.886
397.785
397.667
397.533
397.386
397.226
397.057
396.881
396.697
396.509
396.316
396.12
395.923
395.724
395.525
395.327
395.131
394.937
394.746
394.559
394.376
394.198
394.025
393.856
393.693
393.536
393.383
393.236
393.095
392.958
392.826
392.698
392.575
392.456
392.341
392.229
392.12
392.015
391.912
391.812
391.714
391.618
391.525
391.433
391.343
391.255
391.168
391.083
390.999
390.917
390.836
390.756
390.677
390.599
390.523
390.447
390.373
390.3
390.228
390.157
390.088
390.019
389.951
389.885
389.82
389.756
389.693
389.631
389.57
389.511
389.453
389.395
389.34
389.285
389.231
389.179
389.128
389.078
389.029
388.982
388.936
388.891
388.847
388.805
388.763
388.723
388.685
388.647
388.611
388.577
388.543
388.511
388.48
388.451
388.423
388.396
388.371
388.347
388.325
388.305
388.285
388.268
388.252
388.238
388.226
388.215
388.206
388.199
388.195
388.192
388.191
388.192
388.196
388.202
388.21
388.221
388.234
388.25
388.268
388.289
388.313
388.339
388.369
388.401
388.436
388.474
388.516
388.56
388.608
388.659
388.714
388.772
388.833
388.898
388.967
389.041
389.118
389.2
389.286
389.378
389.474
389.577
389.685
389.8
389.922
390.051
390.188
390.333
390.488
390.652
390.827
391.011
391.207
391.413
391.629
391.856
397.999
397.979
397.939
397.881
397.804
397.709
397.598
397.471
397.331
397.179
397.017
396.847
396.67
396.487
396.3
396.11
395.917
395.723
395.528
395.334
395.141
394.951
394.763
394.578
394.397
394.22
394.048
393.881
393.718
393.561
393.408
393.261
393.118
392.981
392.848
392.719
392.595
392.475
392.358
392.245
392.135
392.028
391.925
391.823
391.725
391.628
391.534
391.441
391.35
391.261
391.174
391.088
391.004
390.921
390.839
390.758
390.679
390.601
390.524
390.448
390.374
390.3
390.228
390.156
390.086
390.017
389.949
389.882
389.816
389.751
389.687
389.625
389.564
389.503
389.444
389.386
389.329
389.273
389.219
389.165
389.113
389.061
389.011
388.962
388.914
388.868
388.822
388.778
388.734
388.692
388.651
388.611
388.573
388.535
388.498
388.463
388.429
388.396
388.364
388.333
388.304
388.276
388.248
388.223
388.198
388.175
388.153
388.132
388.113
388.095
388.078
388.063
388.049
388.037
388.026
388.017
388.009
388.003
387.999
387.996
387.995
387.995
387.998
388.002
388.008
388.015
388.025
388.036
388.049
388.064
388.08
388.099
388.119
388.142
388.167
388.193
388.222
388.254
388.288
388.324
388.364
388.407
388.454
388.504
388.559
388.62
388.685
388.758
388.837
388.924
389.019
389.125
389.241
389.368
389.508
389.661
389.829
390.011
390.208
390.421
397.925
397.905
397.868
397.813
397.74
397.649
397.543
397.421
397.287
397.14
396.984
396.819
396.647
396.469
396.287
396.1
395.912
395.721
395.53
395.339
395.149
394.961
394.775
394.592
394.413
394.237
394.066
393.899
393.737
393.58
393.427
393.28
393.137
392.999
392.865
392.735
392.61
392.489
392.371
392.257
392.147
392.039
391.934
391.832
391.733
391.635
391.54
391.447
391.355
391.266
391.178
391.091
391.006
390.923
390.841
390.76
390.68
390.601
390.524
390.448
390.373
390.299
390.226
390.154
390.083
390.013
389.945
389.877
389.811
389.745
389.681
389.618
389.556
389.494
389.434
389.375
389.317
389.261
389.205
389.15
389.096
389.044
388.992
388.942
388.892
388.844
388.796
388.75
388.704
388.66
388.616
388.574
388.533
388.492
388.453
388.414
388.376
388.34
388.304
388.269
388.235
388.203
388.171
388.139
388.109
388.08
388.052
388.025
387.998
387.973
387.948
387.924
387.902
387.88
387.859
387.839
387.82
387.802
387.785
387.769
387.753
387.739
387.725
387.712
387.7
387.688
387.678
387.667
387.658
387.649
387.641
387.633
387.626
387.62
387.614
387.609
387.605
387.602
387.599
387.599
387.6
387.603
387.608
387.616
387.628
387.645
387.666
387.693
387.728
387.77
387.822
387.885
387.96
388.048
388.151
388.271
388.408
388.565
388.742
388.941
397.87
397.851
397.815
397.762
397.692
397.604
397.502
397.384
397.254
397.111
396.959
396.798
396.63
396.456
396.276
396.093
395.907
395.72
395.531
395.343
395.155
394.968
394.784
394.603
394.425
394.25
394.079
393.913
393.751
393.594
393.441
393.294
393.15
393.012
392.877
392.747
392.621
392.5
392.381
392.267
392.155
392.047
391.941
391.838
391.738
391.64
391.544
391.45
391.359
391.268
391.18
391.093
391.008
390.924
390.841
390.76
390.679
390.6
390.523
390.446
390.37
390.296
390.223
390.15
390.079
390.009
389.94
389.872
389.805
389.738
389.673
389.609
389.546
389.484
389.424
389.364
389.305
389.247
389.19
389.134
389.079
389.025
388.972
388.92
388.869
388.818
388.769
388.721
388.673
388.627
388.581
388.536
388.492
388.448
388.406
388.364
388.323
388.283
388.243
388.204
388.166
388.129
388.092
388.055
388.02
387.985
387.95
387.916
387.883
387.85
387.817
387.785
387.754
387.722
387.691
387.661
387.63
387.6
387.57
387.54
387.511
387.481
387.451
387.421
387.39
387.36
387.329
387.297
387.265
387.232
387.199
387.165
387.13
387.094
387.057
387.02
386.982
386.943
386.904
386.865
386.826
386.787
386.75
386.715
386.682
386.652
386.627
386.607
386.594
386.589
386.595
386.612
386.642
386.688
386.752
386.835
386.94
387.069
387.223
387.405
397.834
397.816
397.781
397.729
397.66
397.575
397.474
397.359
397.231
397.092
396.942
396.784
396.618
396.446
396.269
396.088
395.904
395.719
395.532
395.345
395.158
394.973
394.79
394.61
394.432
394.258
394.088
393.922
393.76
393.603
393.45
393.302
393.159
393.02
392.885
392.755
392.629
392.506
392.387
392.272
392.16
392.051
391.945
391.842
391.741
391.643
391.546
391.452
391.36
391.269
391.18
391.093
391.007
390.923
390.84
390.758
390.678
390.598
390.52
390.443
390.367
390.292
390.218
390.146
390.074
390.003
389.934
389.865
389.797
389.73
389.665
389.6
389.536
389.474
389.412
389.351
389.291
389.232
389.174
389.117
389.061
389.005
388.951
388.897
388.844
388.792
388.741
388.691
388.641
388.592
388.544
388.497
388.45
388.404
388.358
388.313
388.269
388.225
388.182
388.139
388.096
388.054
388.012
387.971
387.929
387.889
387.848
387.807
387.767
387.726
387.686
387.645
387.605
387.564
387.523
387.482
387.44
387.398
387.355
387.311
387.267
387.222
387.176
387.129
387.08
387.03
386.979
386.925
386.871
386.814
386.755
386.694
386.631
386.565
386.497
386.427
386.354
386.279
386.202
386.124
386.043
385.962
385.881
385.799
385.719
385.641
385.567
385.497
385.434
385.378
385.334
385.301
385.284
385.284
385.304
385.348
385.417
385.514
385.643
385.805
397.816
397.798
397.763
397.712
397.644
397.56
397.46
397.347
397.22
397.082
396.934
396.777
396.612
396.441
396.265
396.086
395.903
395.718
395.532
395.345
395.16
394.975
394.793
394.613
394.435
394.262
394.092
393.926
393.764
393.607
393.455
393.306
393.163
393.024
392.889
392.758
392.631
392.509
392.39
392.274
392.162
392.053
391.946
391.843
391.742
391.643
391.546
391.452
391.359
391.268
391.179
391.092
391.005
390.921
390.837
390.755
390.675
390.595
390.516
390.439
390.363
390.287
390.213
390.14
390.068
389.997
389.926
389.857
389.789
389.721
389.655
389.59
389.525
389.462
389.399
389.337
389.276
389.216
389.157
389.099
389.041
388.985
388.929
388.873
388.819
388.765
388.712
388.66
388.609
388.557
388.507
388.457
388.408
388.359
388.31
388.262
388.214
388.167
388.119
388.072
388.026
387.979
387.932
387.886
387.839
387.792
387.745
387.698
387.651
387.603
387.554
387.505
387.456
387.406
387.355
387.303
387.249
387.195
387.14
387.083
387.024
386.964
386.901
386.837
386.77
386.701
386.629
386.554
386.476
386.395
386.311
386.223
386.131
386.035
385.935
385.832
385.724
385.612
385.496
385.377
385.254
385.128
385.001
384.871
384.742
384.613
384.486
384.363
384.246
384.137
384.038
383.952
383.882
383.832
383.804
383.802
383.831
383.892
383.991
384.131
397.815
397.798
397.763
397.712
397.644
397.56
397.46
397.347
397.22
397.082
396.934
396.777
396.612
396.441
396.265
396.085
395.902
395.717
395.531
395.345
395.159
394.975
394.792
394.612
394.435
394.261
394.091
393.925
393.764
393.606
393.454
393.306
393.162
393.023
392.888
392.757
392.63
392.507
392.388
392.273
392.16
392.051
391.945
391.841
391.74
391.641
391.544
391.449
391.357
391.266
391.176
391.088
391.002
390.917
390.834
390.751
390.67
390.59
390.511
390.434
390.357
390.281
390.207
390.133
390.06
389.989
389.918
389.848
389.779
389.711
389.644
389.578
389.513
389.449
389.385
389.322
389.261
389.199
389.139
389.08
389.021
388.963
388.906
388.849
388.793
388.738
388.683
388.629
388.575
388.522
388.469
388.417
388.365
388.313
388.262
388.21
388.159
388.108
388.057
388.006
387.955
387.904
387.852
387.801
387.748
387.696
387.643
387.589
387.535
387.479
387.423
387.366
387.308
387.248
387.187
387.124
387.06
386.994
386.925
386.855
386.782
386.706
386.628
386.546
386.461
386.373
386.28
386.184
386.083
385.978
385.868
385.752
385.632
385.505
385.373
385.236
385.092
384.942
384.787
384.625
384.459
384.287
384.111
383.932
383.75
383.567
383.385
383.205
383.03
382.862
382.705
382.56
382.433
382.326
382.245
382.192
382.174
382.195
382.259
382.371
397.833
397.815
397.78
397.728
397.659
397.574
397.474
397.359
397.231
397.091
396.942
396.783
396.617
396.445
396.268
396.087
395.903
395.718
395.531
395.344
395.157
394.972
394.789
394.608
394.43
394.256
394.086
393.92
393.758
393.601
393.448
393.3
393.156
393.017
392.882
392.752
392.625
392.502
392.383
392.268
392.155
392.046
391.94
391.836
391.735
391.636
391.54
391.445
391.352
391.261
391.172
391.084
390.997
390.912
390.828
390.746
390.665
390.584
390.505
390.427
390.35
390.274
390.199
390.125
390.052
389.98
389.909
389.838
389.769
389.7
389.633
389.566
389.5
389.435
389.37
389.307
389.244
389.182
389.121
389.06
389
388.941
388.882
388.824
388.767
388.71
388.653
388.597
388.541
388.486
388.431
388.376
388.322
388.267
388.213
388.158
388.104
388.049
387.995
387.94
387.884
387.829
387.773
387.716
387.658
387.6
387.541
387.481
387.419
387.357
387.293
387.227
387.16
387.091
387.02
386.947
386.872
386.793
386.713
386.629
386.541
386.451
386.356
386.258
386.155
386.047
385.934
385.816
385.693
385.563
385.427
385.284
385.134
384.977
384.813
384.641
384.46
384.272
384.076
383.871
383.659
383.44
383.214
382.982
382.746
382.506
382.265
382.024
381.786
381.555
381.332
381.123
380.932
380.762
380.62
380.511
380.439
380.412
380.434
380.511
397.869
397.85
397.815
397.761
397.691
397.603
397.5
397.383
397.252
397.11
396.958
396.797
396.629
396.454
396.275
396.092
395.906
395.718
395.529
395.341
395.153
394.966
394.782
394.6
394.422
394.247
394.076
393.91
393.748
393.59
393.437
393.289
393.146
393.007
392.872
392.742
392.616
392.493
392.375
392.259
392.147
392.038
391.932
391.829
391.728
391.629
391.533
391.438
391.346
391.255
391.165
391.077
390.991
390.906
390.822
390.739
390.658
390.577
390.498
390.42
390.342
390.266
390.191
390.116
390.043
389.97
389.898
389.828
389.758
389.688
389.62
389.553
389.486
389.42
389.355
389.29
389.227
389.164
389.101
389.04
388.979
388.918
388.858
388.798
388.739
388.681
388.623
388.565
388.507
388.45
388.392
388.335
388.278
388.221
388.164
388.106
388.049
387.991
387.933
387.874
387.814
387.754
387.693
387.631
387.569
387.505
387.44
387.373
387.305
387.235
387.164
387.09
387.014
386.936
386.855
386.772
386.685
386.595
386.502
386.405
386.304
386.198
386.088
385.972
385.851
385.725
385.592
385.452
385.306
385.152
384.99
384.82
384.641
384.453
384.256
384.048
383.831
383.603
383.365
383.116
382.858
382.589
382.311
382.024
381.73
381.429
381.125
380.819
380.513
380.212
379.919
379.639
379.376
379.136
378.925
378.749
378.616
378.531
378.504
378.539
397.923
397.904
397.867
397.811
397.738
397.648
397.541
397.42
397.285
397.139