/*--------------------------------*- C++ -*----------------------------------*\
| =========                 |                                                 |
| \\      /  F ield         | OpenFOAM: The Open Source CFD Toolbox           |
|  \\    /   O peration     | Version:  2306                                  |
|   \\  /    A nd           | Website:  www.openfoam.com                      |
|    \\/     M anipulation  |                                                 |
\*---------------------------------------------------------------------------*/
FoamFile
{
    version     2.0;
    format      ascii;
    arch        "LSB;label=32;scalar=64";
    class       surfaceScalarField;
    location    "0.075";
    object      phi;
}
// * * * * * * * * * * * * * * * * * * * * * * * * * * * * * * * * * * * * * //

dimensions      [0 3 -1 0 0 0 0];

oriented        oriented;

internalField   nonuniform List<scalar> 
34640
(
0.0049244
7.55977e-05
0.00478599
0.000138411
0.00463053
0.000155462
0.00447387
0.000156661
0.00431586
0.000158012
0.00415471
0.000161149
0.0039908
0.000163903
0.0038255
0.000165309
0.00366042
0.000165079
0.00349695
0.000163465
0.00333601
0.000160943
0.00317819
0.000157821
0.00302402
0.000154163
0.0028741
0.000149927
0.00272904
0.000145061
0.00258949
0.000139544
0.00245615
0.000133341
0.00232961
0.000126537
0.00221025
0.000119364
0.00209845
0.000111798
0.00199453
0.000103919
0.0018987
9.5838e-05
0.00181102
8.76782e-05
0.00173145
7.95685e-05
0.00165981
7.16363e-05
0.00159581
6.40007e-05
0.00153905
5.6766e-05
0.00148903
5.00169e-05
0.00144521
4.38157e-05
0.00140701
3.82014e-05
0.00137382
3.31906e-05
0.00134504
2.878e-05
0.00132009
2.4949e-05
0.00129843
2.16643e-05
0.00127955
1.88833e-05
0.00126299
1.65577e-05
0.00124835
1.46336e-05
0.00123531
1.30485e-05
0.00122355
1.17503e-05
0.00121286
1.06981e-05
0.001203
9.85466e-06
0.00119382
9.18505e-06
0.00118516
8.65671e-06
0.00117692
8.24074e-06
0.00116901
7.91239e-06
0.00116136
7.65106e-06
0.00115392
7.4399e-06
0.00114665
7.26531e-06
0.00113953
7.1164e-06
0.00113255
6.98464e-06
0.00112569
6.8634e-06
0.00111894
6.74772e-06
0.0011123
6.63398e-06
0.00110579
6.51966e-06
0.00109938
6.40309e-06
0.0010931
6.2833e-06
0.00108694
6.15982e-06
0.00108091
6.03255e-06
0.001075
5.90169e-06
0.00106924
5.76761e-06
0.00106361
5.63084e-06
0.00105811
5.49196e-06
0.00105276
5.35166e-06
0.00104755
5.21061e-06
0.00104248
5.06951e-06
0.00103755
4.92908e-06
0.00103276
4.79011e-06
0.00102811
4.65342e-06
0.00102359
4.51982e-06
0.0010192
4.38999e-06
0.00101494
4.26442e-06
0.00101079
4.14341e-06
0.00100677
4.02723e-06
0.00100285
3.91617e-06
0.000999038
3.81069e-06
0.000995327
3.71136e-06
0.000991708
3.6189e-06
0.000988174
3.53399e-06
0.000984717
3.45723e-06
0.000981328
3.38891e-06
0.000977998
3.33025e-06
0.000974715
3.28295e-06
0.000971467
3.24724e-06
0.000968244
3.22323e-06
0.000965033
3.21149e-06
0.00096182
3.21292e-06
0.000958591
3.22842e-06
0.000955333
3.25881e-06
0.000952028
3.30475e-06
0.000948661
3.36686e-06
0.000945215
3.44572e-06
0.000941673
3.54194e-06
0.000938017
3.65616e-06
0.000934228
3.78906e-06
0.000930287
3.94128e-06
0.000926173
4.1135e-06
0.000921867
4.30647e-06
0.000917346
4.52097e-06
0.000912588
4.75779e-06
0.00090757
5.01774e-06
0.000902269
5.30164e-06
0.000896658
5.61034e-06
0.000890714
5.94467e-06
0.000884408
6.3055e-06
0.000877715
6.69367e-06
0.000870605
7.11005e-06
0.000863049
7.55555e-06
0.000855018
8.0311e-06
0.00084648
8.53773e-06
0.000837404
9.07652e-06
0.000827755
9.64828e-06
0.000817501
1.02542e-05
0.000806606
1.08957e-05
0.000795032
1.1574e-05
0.000782741
1.22903e-05
0.000769695
1.30461e-05
0.000755852
1.38428e-05
0.00074117
1.46819e-05
0.000725606
1.55646e-05
0.000709114
1.64923e-05
0.000691648
1.7466e-05
0.000673161
1.84865e-05
0.000653607
1.95542e-05
0.000632938
2.0669e-05
0.000611108
2.183e-05
0.000588072
2.30356e-05
0.000563789
2.42831e-05
0.00053822
2.55687e-05
0.000511333
2.68873e-05
0.000483101
2.8232e-05
0.000453507
2.95943e-05
0.000422543
3.09635e-05
0.000390217
3.23267e-05
0.000356549
3.36681e-05
0.000321579
3.49694e-05
0.00028537
3.6209e-05
0.000248008
3.73621e-05
0.000209607
3.8401e-05
0.000170313
3.92945e-05
0.000130304
4.00091e-05
8.97951e-05
4.05085e-05
4.90386e-05
4.07565e-05
8.32266e-06
4.0716e-05
-3.20375e-05
4.03601e-05
-7.17163e-05
3.96788e-05
-0.000110353
3.86368e-05
-0.000147584
3.7231e-05
-0.000183067
3.54828e-05
-0.000216493
3.34263e-05
-0.000247607
3.1114e-05
-0.000276215
2.86081e-05
-0.000302184
2.59687e-05
-0.000325413
2.32291e-05
-0.000345796
2.03825e-05
-0.000363252
1.74564e-05
-0.000377684
1.44321e-05
-0.00038896
1.12756e-05
-0.000396994
8.03406e-06
-0.000401755
4.76154e-06
1.53061e-06
-0.000403286
0.00503752
3.80731e-05
0.00507741
9.85294e-05
0.00509716
0.000135711
0.00510104
0.000152781
0.00509797
0.000161077
0.00509067
0.000168454
0.00507785
0.000176726
0.0050584
0.000184759
0.00503226
0.000191212
0.00500011
0.000195615
0.00496282
0.000198233
0.00492113
0.000199509
0.00487558
0.000199712
0.00482658
0.000198928
0.00477451
0.000197139
0.00471975
0.000194304
0.00466267
0.000190416
0.00460367
0.000185541
0.00454325
0.000179779
0.00448184
0.000173206
0.00441985
0.000165911
0.00435767
0.000158016
0.00429569
0.000149664
0.00423424
0.000141011
0.00417366
0.000132217
0.00411423
0.000123436
0.00405618
0.000114814
0.00399972
0.000106477
0.003945
9.85311e-05
0.00389215
9.10578e-05
0.00384123
8.41133e-05
0.00379227
7.77312e-05
0.0037453
7.19222e-05
0.00370028
6.66805e-05
0.00365718
6.19838e-05
0.00361594
5.78057e-05
0.00357642
5.41472e-05
0.00353858
5.08877e-05
0.00350236
4.79741e-05
0.00346766
4.53951e-05
0.0034344
4.31135e-05
0.0034025
4.10912e-05
0.00337186
3.92923e-05
0.00334242
3.76836e-05
0.0033141
3.62354e-05
0.00328683
3.49219e-05
0.00326054
3.37205e-05
0.0032352
3.26122e-05
0.00321073
3.15807e-05
0.00318711
3.06124e-05
0.00316427
2.9696e-05
0.0031422
2.88222e-05
0.00312085
2.79834e-05
0.00310019
2.71737e-05
0.00308021
2.63884e-05
0.00306087
2.56237e-05
0.00304215
2.4877e-05
0.00302404
2.4146e-05
0.00300651
2.34293e-05
0.00298955
2.27256e-05
0.00297315
2.20344e-05
0.00295729
2.13552e-05
0.00294195
2.06878e-05
0.00292713
2.00324e-05
0.00291281
1.93893e-05
0.00289898
1.87589e-05
0.00288563
1.81417e-05
0.00287274
1.75384e-05
0.00286031
1.69499e-05
0.00284832
1.63769e-05
0.00283677
1.58205e-05
0.00282563
1.52812e-05
0.0028149
1.47598e-05
0.00280456
1.42569e-05
0.00279459
1.37736e-05
0.00278499
1.33111e-05
0.00277574
1.2871e-05
0.00276682
1.24549e-05
0.00275821
1.20645e-05
0.0027499
1.17016e-05
0.00274186
1.13682e-05
0.00273408
1.10663e-05
0.00272653
1.07981e-05
0.00271919
1.05652e-05
0.00271203
1.03691e-05
0.00270503
1.02114e-05
0.00269817
1.00942e-05
0.0026914
1.00196e-05
0.00268472
9.98947e-06
0.00267808
1.00053e-05
0.00267146
1.00687e-05
0.00266482
1.01814e-05
0.00265813
1.03451e-05
0.00265136
1.05618e-05
0.00264447
1.08332e-05
0.00263742
1.1161e-05
0.00263018
1.15472e-05
0.0026227
1.19936e-05
0.00261496
1.25024e-05
0.0026069
1.30755e-05
0.00259849
1.37151e-05
0.00258968
1.44232e-05
0.00258042
1.5202e-05
0.00257067
1.60536e-05
0.00256038
1.69801e-05
0.00254951
1.79838e-05
0.002538
1.9067e-05
0.0025258
2.0232e-05
0.00251285
2.14817e-05
0.00249911
2.28189e-05
0.00248451
2.42463e-05
0.002469
2.57674e-05
0.00245251
2.73863e-05
0.00243498
2.91072e-05
0.00241633
3.09344e-05
0.00239651
3.2873e-05
0.00237542
3.49286e-05
0.00235299
3.71069e-05
0.00232915
3.94143e-05
0.00230378
4.18571e-05
0.0022768
4.4442e-05
0.00224812
4.71753e-05
0.00221761
5.00634e-05
0.00218516
5.31119e-05
0.00215067
5.63257e-05
0.00211399
5.9709e-05
0.00207501
6.32644e-05
0.00203359
6.69932e-05
0.00198958
7.08949e-05
0.00194285
7.4967e-05
0.00189324
7.9204e-05
0.0018406
8.35982e-05
0.00178479
8.81379e-05
0.00172565
9.28081e-05
0.00166303
9.75886e-05
0.00159679
0.000102454
0.00152677
0.000107374
0.00145287
0.000112308
0.00137495
0.000117212
0.00129293
0.000122029
0.00120674
0.000126693
0.00111637
0.00013113
0.00102183
0.000135254
0.000923225
0.000138968
0.00082074
0.000142164
0.000714652
0.000144724
0.000605371
0.000146512
0.000493467
0.000147387
0.000379692
0.000147201
0.000265009
0.000145797
0.000150594
0.000143023
3.78234e-05
0.000138739
-7.17987e-05
0.000132851
-0.000176775
0.000125359
-0.000275623
0.000116305
-0.000367103
0.000105912
-0.00045035
9.45228e-05
-0.000524931
8.26154e-05
-0.000590857
7.06879e-05
5.91126e-05
-0.000648439
0.00501445
2.36248e-05
0.00504448
6.85018e-05
0.00507419
0.000105998
0.0050986
0.000128368
0.00511783
0.000141851
0.00513506
0.000151221
0.005152
0.000159786
0.00516824
0.000168524
0.00518279
0.000176662
0.005195
0.000183398
0.00520475
0.000188484
0.00521221
0.000192053
0.00521755
0.000194373
0.00522083
0.00019564
0.00522204
0.000195936
0.00522109
0.000195253
0.00521793
0.000193575
0.00521256
0.000190909
0.00520506
0.000187282
0.00519548
0.000182787
0.00518389
0.000177495
0.00517041
0.000171503
0.00515514
0.00016493
0.00513824
0.00015791
0.00511987
0.000150584
0.00510022
0.000143095
0.00507945
0.000135579
0.00505776
0.000128163
0.00503534
0.000120958
0.00501234
0.000114054
0.00498893
0.000107521
0.00496525
0.000101411
0.00494143
9.57508e-05
0.00491755
9.05546e-05
0.00489371
8.58207e-05
0.00486998
8.15376e-05
0.00484645
7.76803e-05
0.00482314
7.41977e-05
0.00480006
7.10502e-05
0.00477725
6.8211e-05
0.00475471
6.56524e-05
0.00473246
6.33441e-05
0.00471049
6.12545e-05
0.00468882
5.93536e-05
0.00466745
5.76135e-05
0.00464636
5.60093e-05
0.00462556
5.45191e-05
0.00460505
5.31237e-05
0.00458482
5.18067e-05
0.00456488
5.05542e-05
0.00454522
4.93543e-05
0.00452585
4.81971e-05
0.00450676
4.70745e-05
0.00448795
4.59799e-05
0.00446943
4.49079e-05
0.0044512
4.38545e-05
0.00443326
4.28163e-05
0.00441562
4.17911e-05
0.00439827
4.07768e-05
0.00438122
3.97724e-05
0.00436448
3.8777e-05
0.00434804
3.77901e-05
0.00433192
3.68119e-05
0.00431611
3.58427e-05
0.00430062
3.48828e-05
0.00428544
3.39331e-05
0.00427059
3.29945e-05
0.00425606
3.20681e-05
0.00424185
3.11552e-05
0.00422797
3.02573e-05
0.00421442
2.93758e-05
0.00420119
2.85124e-05
0.00418828
2.76684e-05
0.00417569
2.68456e-05
0.00416342
2.6046e-05
0.00415146
2.52718e-05
0.0041398
2.45256e-05
0.00412845
2.38101e-05
0.00411738
2.31283e-05
0.0041066
2.24831e-05
0.00409609
2.18774e-05
0.00408584
2.13146e-05
0.00407584
2.07981e-05
0.00406608
2.03314e-05
0.00405653
1.99176e-05
0.00404718
1.95593e-05
0.00403802
1.92599e-05
0.00402901
1.90232e-05
0.00402015
1.88524e-05
0.0040114
1.87505e-05
0.00400275
1.87203e-05
0.00399417
1.87648e-05
0.00398563
1.88877e-05
0.0039771
1.90922e-05
0.00396855
1.93816e-05
0.00395995
1.9759e-05
0.00395127
2.02279e-05
0.00394247
2.07918e-05
0.00393352
2.14542e-05
0.00392438
2.22187e-05
0.003915
2.3089e-05
0.00390536
2.40688e-05
0.0038954
2.5162e-05
0.00388508
2.63725e-05
0.00387435
2.77042e-05
0.00386318
2.91614e-05
0.00385149
3.07483e-05
0.00383926
3.24697e-05
0.00382641
3.43304e-05
0.00381289
3.63359e-05
0.00379865
3.84917e-05
0.00378361
4.08041e-05
0.00376771
4.32802e-05
0.00375089
4.59276e-05
0.00373307
4.87545e-05
0.00371418
5.177e-05
0.00369412
5.4984e-05
0.00367282
5.84073e-05
0.00365018
6.20512e-05
0.00362611
6.5928e-05
0.00360051
7.00505e-05
0.00357325
7.44319e-05
0.00354423
7.90856e-05
0.00351331
8.4025e-05
0.00348038
8.92633e-05
0.00344527
9.48128e-05
0.00340785
0.000100685
0.00336795
0.00010689
0.00332541
0.000113437
0.00328005
0.000120332
0.00323167
0.000127578
0.00318009
0.000135177
0.00312511
0.000143125
0.0030665
0.000151417
0.00300405
0.00016004
0.00293752
0.000168978
0.00286669
0.000178209
0.00279129
0.000187702
0.00271109
0.00019742
0.0026258
0.000207317
0.00253516
0.000217335
0.00243888
0.000227404
0.0023367
0.00023744
0.00222832
0.000247344
0.00211349
0.000256995
0.00199196
0.00026625
0.00186354
0.000274935
0.00172808
0.000282847
0.00158553
0.000289756
0.00143593
0.000295393
0.00127949
0.000299469
0.00111656
0.000301665
0.000947754
0.000301656
0.000774004
0.000299109
0.000596594
0.000293715
0.000417304
0.000285202
0.000238463
0.000273363
6.29755e-05
0.000258103
-0.000105809
0.000239473
0.000217771
-0.000264468
0.00500634
1.72854e-05
0.00502385
5.09895e-05
0.00504705
8.27977e-05
0.0050694
0.000106019
0.0050891
0.000122155
0.00510688
0.000133437
0.00512447
0.000142199
0.00514269
0.000150301
0.00516114
0.000158211
0.00517932
0.000165215
0.00519691
0.000170899
0.00521378
0.000175182
0.00522997
0.000178184
0.0052455
0.000180108
0.00526033
0.000181107
0.00527436
0.000181225
0.00528746
0.000180471
0.00529952
0.000178845
0.00531044
0.000176369
0.00532012
0.0001731
0.00532851
0.000169106
0.00533555
0.000164467
0.0053412
0.000159277
0.00534547
0.000153646
0.00534836
0.000147687
0.00534994
0.000141519
0.00535026
0.000135257
0.00534942
0.00012901
0.0053475
0.000122876
0.00534461
0.000116938
0.00534087
0.000111265
0.00533637
0.000105907
0.00533123
0.000100899
0.00532552
9.62602e-05
0.00531934
9.19974e-05
0.00531278
8.81035e-05
0.0053059
8.4561e-05
0.00529875
8.13475e-05
0.00529136
7.8436e-05
0.00528377
7.57993e-05
0.00527601
7.34125e-05
0.00526811
7.12505e-05
0.00526007
6.92878e-05
0.00525193
6.74988e-05
0.00524368
6.58594e-05
0.00523535
6.4347e-05
0.00522692
6.29416e-05
0.00521842
6.16252e-05
0.00520985
6.03823e-05
0.0052012
5.91995e-05
0.00519249
5.8065e-05
0.00518372
5.69691e-05
0.00517489
5.59034e-05
0.00516601
5.48612e-05
0.00515708
5.38367e-05
0.00514811
5.28256e-05
0.0051391
5.18242e-05
0.00513006
5.08298e-05
0.005121
4.98403e-05
0.00511192
4.88542e-05
0.00510282
4.78705e-05
0.00509372
4.68888e-05
0.00508463
4.59089e-05
0.00507554
4.49311e-05
0.00506647
4.3956e-05
0.00505741
4.29844e-05
0.00504839
4.20173e-05
0.0050394
4.10561e-05
0.00503046
4.01022e-05
0.00502156
3.91574e-05
0.00501271
3.82238e-05
0.00500392
3.73032e-05
0.00499519
3.63977e-05
0.00498652
3.55096e-05
0.00497793
3.46414e-05
0.0049694
3.37961e-05
0.00496095
3.29769e-05
0.00495258
3.21872e-05
0.00494427
3.14305e-05
0.00493605
3.07106e-05
0.00492789
3.00313e-05
0.00491981
2.93966e-05
0.0049118
2.8811e-05
0.00490385
2.82789e-05
0.00489596
2.78043e-05
0.00488813
2.73913e-05
0.00488035
2.70441e-05
0.0048726
2.67676e-05
0.00486489
2.65664e-05
0.00485719
2.64445e-05
0.00484951
2.64056e-05
0.00484182
2.64544e-05
0.00483411
2.65956e-05
0.00482637
2.68339e-05
0.00481858
2.71737e-05
0.00481072
2.76197e-05
0.00480277
2.81767e-05
0.00479471
2.88496e-05
0.00478652
2.96435e-05
0.00477818
3.05635e-05
0.00476965
3.16148e-05
0.00476092
3.28028e-05
0.00475195
3.41332e-05
0.00474271
3.56116e-05
0.00473317
3.72439e-05
0.00472329
3.90365e-05
0.00471304
4.09958e-05
0.00470239
4.31288e-05
0.00469127
4.54427e-05
0.00467966
4.79454e-05
0.00466751
5.06459e-05
0.00465476
5.35533e-05
0.00464136
5.66775e-05
0.00462726
6.00294e-05
0.00461239
6.36211e-05
0.0045967
6.74657e-05
0.00458011
7.15771e-05
0.00456254
7.59707e-05
0.00454393
8.06627e-05
0.00452419
8.56705e-05
0.00450323
9.10125e-05
0.00448095
9.67081e-05
0.00445726
0.000102777
0.00443204
0.00010924
0.00440519
0.000116118
0.00437657
0.000123431
0.00434606
0.0001312
0.0043135
0.000139445
0.00427875
0.000148184
0.00424165
0.000157435
0.00420202
0.000167212
0.00415966
0.00017753
0.00411439
0.000188398
0.00406598
0.000199823
0.00401422
0.000211808
0.00395884
0.000224351
0.00389961
0.000237442
0.00383625
0.000251066
0.00376847
0.000265198
0.00369598
0.000279805
0.00361847
0.000294842
0.00353562
0.000310253
0.00344709
0.00032597
0.00335253
0.000341911
0.00325155
0.000357975
0.00314376
0.000374041
0.00302873
0.000389962
0.00290602
0.000405558
0.00277516
0.000420612
0.00263569
0.000434864
0.00248715
0.000448014
0.00232911
0.000459704
0.00216123
0.000469536
0.00198327
0.000477065
0.00179518
0.000481811
0.00159712
0.000483262
0.00138956
0.00048092
0.00117332
0.000474344
0.000949646
0.000463146
0.000447028
0.000720389
0.00500365
1.36342e-05
0.00501435
4.02917e-05
0.00503119
6.59561e-05
0.00504935
8.78568e-05
0.00506704
0.000104473
0.00508365
0.000116827
0.00509964
0.000126209
0.00511584
0.000134093
0.00513261
0.000141447
0.00514971
0.000148114
0.00516682
0.000153789
0.00518374
0.00015826
0.0052004
0.000161527
0.00521678
0.000163725
0.00523289
0.000164996
0.00524869
0.000165428
0.0052641
0.000165064
0.00527901
0.000163927
0.00529334
0.000162043
0.00530699
0.000159453
0.00531987
0.000156219
0.00533193
0.000152411
0.0053431
0.00014811
0.00535334
0.000143406
0.00536263
0.000138396
0.00537097
0.000133176
0.00537838
0.000127845
0.0053849
0.000122494
0.00539057
0.000117205
0.00539545
0.000112054
0.00539962
0.0001071
0.00540314
0.00010239
0.00540607
9.79598e-05
0.00540851
9.3829e-05
0.0054105
9.00074e-05
0.00541211
8.64936e-05
0.00541339
8.32795e-05
0.00541438
8.03523e-05
0.00541512
7.76937e-05
0.00541564
7.52817e-05
0.00541596
7.30941e-05
0.0054161
7.11097e-05
0.00541608
6.93072e-05
0.00541591
6.76654e-05
0.00541561
6.61637e-05
0.00541518
6.47825e-05
0.00541461
6.3504e-05
0.00541393
6.23117e-05
0.00541312
6.11914e-05
0.00541219
6.01303e-05
0.00541113
5.91174e-05
0.00540996
5.81432e-05
0.00540866
5.71995e-05
0.00540725
5.62794e-05
0.00540571
5.53772e-05
0.00540404
5.44881e-05
0.00540226
5.36084e-05
0.00540035
5.2735e-05
0.00539833
5.18655e-05
0.00539618
5.0998e-05
0.00539392
5.01314e-05
0.00539155
4.92648e-05
0.00538906
4.8398e-05
0.00538646
4.75311e-05
0.00538375
4.66644e-05
0.00538094
4.57987e-05
0.00537802
4.49347e-05
0.005375
4.40738e-05
0.00537189
4.32175e-05
0.00536868
4.23674e-05
0.00536537
4.15257e-05
0.00536198
4.06943e-05
0.0053585
3.98755e-05
0.00535494
3.90717e-05
0.0053513
3.82857e-05
0.00534757
3.75204e-05
0.00534377
3.67794e-05
0.00533989
3.60664e-05
0.00533594
3.53852e-05
0.00533191
3.47395e-05
0.00532781
3.41337e-05
0.00532363
3.3572e-05
0.00531938
3.30593e-05
0.00531506
3.26004e-05
0.00531066
3.21999e-05
0.00530619
3.18623e-05
0.00530165
3.15925e-05
0.00529702
3.13959e-05
0.00529231
3.12777e-05
0.00528751
3.12424e-05
0.00528262
3.12949e-05
0.00527763
3.14405e-05
0.00527254
3.16847e-05
0.00526734
3.20329e-05
0.00526203
3.24906e-05
0.00525658
3.30634e-05
0.005251
3.37572e-05
0.00524527
3.4578e-05
0.00523939
3.55318e-05
0.00523333
3.6625e-05
0.00522708
3.7864e-05
0.00522062
3.92555e-05
0.00521395
4.08066e-05
0.00520704
4.25244e-05
0.00519986
4.44165e-05
0.00519241
4.64908e-05
0.00518465
4.87557e-05
0.00517656
5.122e-05
0.00516811
5.3893e-05
0.00515927
5.67849e-05
0.00515001
5.9907e-05
0.00514029
6.3271e-05
0.00513008
6.68892e-05
0.00511933
7.07755e-05
0.00510801
7.49448e-05
0.00509606
7.94133e-05
0.00508344
8.41986e-05
0.00507009
8.93193e-05
0.00505596
9.47955e-05
0.00504098
0.000100649
0.00502509
0.000106902
0.00500822
0.000113579
0.00499029
0.000120704
0.00497123
0.000128304
0.00495094
0.000136406
0.00492933
0.000145037
0.00490631
0.000154225
0.00488176
0.000163998
0.00485556
0.000174383
0.00482758
0.000185408
0.0047977
0.000197097
0.00476576
0.000209475
0.00473159
0.000222564
0.00469503
0.000236386
0.00465588
0.000250958
0.00461393
0.000266293
0.00456897
0.000282402
0.00452075
0.000299287
0.00446901
0.000316942
0.00441346
0.000335353
0.00435381
0.000354493
0.00428974
0.000374322
0.00422092
0.000394788
0.00414701
0.000415823
0.00406764
0.000437342
0.00398244
0.000459247
0.00389099
0.000481415
0.00379284
0.000503703
0.00368751
0.000525939
0.00357446
0.000547913
0.0034531
0.000569379
0.00332277
0.000590036
0.00318277
0.000609532
0.00303238
0.000627454
0.00287086
0.000643331
0.00269748
0.00065664
0.00251158
0.000666826
0.00231261
0.000673314
0.00210024
0.000675514
0.000672835
0.00187443
0.00500249
1.11441e-05
0.00500982
3.29591e-05
0.00502171
5.40687e-05
0.00503622
7.33488e-05
0.00505143
8.92605e-05
0.0050665
0.00010176
0.00508116
0.000111543
0.00509577
0.000119487
0.00511079
0.000126423
0.00512625
0.000132659
0.00514195
0.000138085
0.0051577
0.000142516
0.00517333
0.000145893
0.0051888
0.00014826
0.00520408
0.000149716
0.00521915
0.000150356
0.00523397
0.000150248
0.00524846
0.000149435
0.00526255
0.000147954
0.00527616
0.000145843
0.00528922
0.000143155
0.00530168
0.000139953
0.00531348
0.000136306
0.00532459
0.000132294
0.00533499
0.000127996
0.00534467
0.000123497
0.00535364
0.00011888
0.00536191
0.000114221
0.00536952
0.000109594
0.00537651
0.000105062
0.00538293
0.000100679
0.00538884
9.6487e-05
0.00539428
9.25193e-05
0.00539931
8.8797e-05
0.00540399
8.53316e-05
0.00540835
8.21268e-05
0.00541245
7.91796e-05
0.00541632
7.64825e-05
0.00541999
7.40226e-05
0.00542349
7.17835e-05
0.00542684
6.9747e-05
0.00543005
6.78948e-05
0.00543315
6.62093e-05
0.00543614
6.46728e-05
0.00543904
6.32678e-05
0.00544185
6.19778e-05
0.00544456
6.07869e-05
0.00544719
5.96805e-05
0.00544974
5.86458e-05
0.0054522
5.7671e-05
0.00545457
5.67458e-05
0.00545685
5.58612e-05
0.00545904
5.50095e-05
0.00546114
5.4184e-05
0.00546314
5.33791e-05
0.00546503
5.25899e-05
0.00546683
5.18127e-05
0.00546852
5.10442e-05
0.0054701
5.02819e-05
0.00547158
4.95238e-05
0.00547294
4.87685e-05
0.00547419
4.80151e-05
0.00547533
4.7263e-05
0.00547634
4.65122e-05
0.00547725
4.57629e-05
0.00547803
4.50157e-05
0.00547869
4.42712e-05
0.00547924
4.35307e-05
0.00547966
4.27954e-05
0.00547996
4.2067e-05
0.00548014
4.13474e-05
0.00548019
4.06387e-05
0.00548013
3.99429e-05
0.00547993
3.92626e-05
0.00547962
3.86004e-05
0.00547918
3.79594e-05
0.00547862
3.73432e-05
0.00547793
3.67552e-05
0.00547711
3.61993e-05
0.00547617
3.56794e-05
0.00547511
3.51996e-05
0.00547392
3.47644e-05
0.0054726
3.43785e-05
0.00547115
3.40468e-05
0.00546958
3.37741e-05
0.00546787
3.35652e-05
0.00546604
3.34252e-05
0.00546408
3.33595e-05
0.00546198
3.33735e-05
0.00545975
3.34723e-05
0.00545738
3.36611e-05
0.00545488
3.39457e-05
0.00545223
3.4332e-05
0.00544944
3.48259e-05
0.0054465
3.54336e-05
0.0054434
3.61612e-05
0.00544014
3.70151e-05
0.00543672
3.80021e-05
0.00543312
3.9129e-05
0.00542934
4.04029e-05
0.00542537
4.18311e-05
0.00542121
4.34214e-05
0.00541683
4.51817e-05
0.00541224
4.71203e-05
0.00540741
4.9246e-05
0.00540233
5.1568e-05
0.00539699
5.4096e-05
0.00539137
5.68404e-05
0.00538545
5.98121e-05
0.00537921
6.30229e-05
0.00537263
6.64859e-05
0.00536569
7.02145e-05
0.00535836
7.42232e-05
0.0053506
7.85279e-05
0.0053424
8.31457e-05
0.00533372
8.8095e-05
0.00532452
9.33957e-05
0.00531477
9.90691e-05
0.00530443
0.000105138
0.00529345
0.000111626
0.0052818
0.000118561
0.00526941
0.000125967
0.00525624
0.000133875
0.00524223
0.000142314
0.00522732
0.000151314
0.00521145
0.000160908
0.00519455
0.000171129
0.00517653
0.000182012
0.00515733
0.000193588
0.00513684
0.000205894
0.00511497
0.000218962
0.00509162
0.000232825
0.00506667
0.000247515
0.00504
0.000263062
0.00501146
0.000279496
0.00498091
0.000296844
0.00494818
0.000315131
0.00491309
0.000334377
0.00487543
0.000354599
0.00483498
0.000375802
0.0047915
0.000397983
0.0047447
0.000421123
0.00469429
0.00044519
0.00463998
0.000470133
0.00458144
0.000495887
0.00451832
0.000522366
0.00445027
0.000549466
0.00437691
0.000577066
0.00429782
0.000605024
0.00421256
0.000633174
0.00412061
0.000661325
0.0040214
0.000689246
0.00391427
0.000716667
0.00379845
0.000743268
0.00367311
0.000768673
0.0035373
0.000792452
0.00339001
0.000814117
0.0032302
0.000833125
0.00305683
0.00084888
0.000860742
0.00286893
0.00500185
9.29514e-06
0.00500728
2.75246e-05
0.00501604
4.5308e-05
0.00502756
6.18336e-05
0.0050404
7.64242e-05
0.00505374
8.84177e-05
0.00506714
9.81442e-05
0.00508054
0.000106081
0.00509419
0.000112773
0.00510823
0.000118618
0.00512261
0.000123713
0.00513715
0.000127976
0.0051517
0.000131338
0.00516617
0.000133791
0.0051805
0.000135384
0.00519466
0.000136196
0.00520861
0.0001363
0.00522229
0.000135752
0.00523565
0.000134598
0.00524861
0.00013288
0.00526112
0.000130643
0.00527313
0.000127942
0.0052846
0.000124839
0.00529549
0.000121401
0.00530579
0.000117699
0.00531549
0.000113803
0.00532458
0.000109785
0.00533309
0.000105711
0.00534104
0.000101645
0.00534846
9.76411e-05
0.00535539
9.37473e-05
0.00536188
9.00026e-05
0.00536796
8.6437e-05
0.00537368
8.30719e-05
0.0053791
7.99204e-05
0.00538423
7.69892e-05
0.00538913
7.42789e-05
0.00539383
7.17851e-05
0.00539835
6.94993e-05
0.00540273
6.74093e-05
0.00540697
6.5501e-05
0.00541111
6.37594e-05
0.00541515
6.21698e-05
0.0054191
6.07174e-05
0.00542299
5.93876e-05
0.0054268
5.81661e-05
0.00543054
5.70394e-05
0.00543423
5.59947e-05
0.00543786
5.50204e-05
0.00544142
5.41059e-05
0.00544492
5.32419e-05
0.00544837
5.242e-05
0.00545174
5.16329e-05
0.00545505
5.08745e-05
0.00545829
5.01392e-05
0.00546146
4.94226e-05
0.00546455
4.87208e-05
0.00546756
4.80308e-05
0.0054705
4.735e-05
0.00547334
4.66763e-05
0.0054761
4.60084e-05
0.00547877
4.53452e-05
0.00548135
4.46861e-05
0.00548383
4.4031e-05
0.00548621
4.33801e-05
0.0054885
4.27337e-05
0.00549068
4.20925e-05
0.00549275
4.14576e-05
0.00549471
4.08302e-05
0.00549657
4.02118e-05
0.00549831
3.96042e-05
0.00549994
3.90096e-05
0.00550145
3.84299e-05
0.00550285
3.78676e-05
0.00550412
3.73254e-05
0.00550528
3.68062e-05
0.00550631
3.63135e-05
0.00550721
3.58506e-05
0.00550799
3.54214e-05
0.00550864
3.50295e-05
0.00550916
3.46791e-05
0.00550955
3.43745e-05
0.00550981
3.41204e-05
0.00550993
3.39216e-05
0.00550992
3.37829e-05
0.00550978
3.37092e-05
0.0055095
3.37055e-05
0.00550908
3.37773e-05
0.00550853
3.39299e-05
0.00550783
3.41689e-05
0.00550699
3.44997e-05
0.00550601
3.49282e-05
0.00550488
3.54605e-05
0.0055036
3.61029e-05
0.00550217
3.68619e-05
0.00550059
3.77439e-05
0.00549885
3.87559e-05
0.00549695
3.99049e-05
0.00549488
4.11984e-05
0.00549264
4.2644e-05
0.00549022
4.42496e-05
0.00548762
4.60236e-05
0.00548482
4.79748e-05
0.00548183
5.01123e-05
0.00547863
5.24458e-05
0.00547521
5.49853e-05
0.00547157
5.77418e-05
0.00546768
6.07265e-05
0.00546354
6.39517e-05
0.00545914
6.74307e-05
0.00545444
7.11772e-05
0.00544945
7.52065e-05
0.00544414
7.95346e-05
0.00543849
8.41786e-05
0.00543248
8.91573e-05
0.00542608
9.44906e-05
0.00541928
0.0001002
0.00541204
0.000106308
0.00540434
0.000112841
0.00539614
0.000119823
0.00538742
0.000127282
0.00537814
0.000135248
0.00536826
0.000143752
0.00535775
0.000152825
0.00534656
0.000162501
0.00533466
0.000172815
0.00532198
0.000183802
0.00530849
0.000195502
0.00529413
0.000207952
0.00527883
0.00022119
0.00526254
0.000235256
0.00524518
0.000250188
0.00522667
0.000266024
0.00520693
0.000282801
0.00518587
0.000300555
0.00516339
0.000319323
0.00513938
0.00033914
0.00511372
0.000360039
0.00508626
0.000382052
0.00505686
0.000405203
0.00502534
0.000429509
0.00499148
0.000454975
0.00495508
0.000481592
0.00491588
0.000509331
0.00487363
0.000538146
0.00482802
0.000567968
0.00477878
0.000598711
0.00472558
0.000630267
0.00466809
0.000662514
0.00460595
0.000695309
0.00453878
0.000728495
0.00446614
0.000761892
0.00438751
0.000795295
0.00430231
0.000828469
0.00420984
0.000861141
0.0041093
0.000892991
0.00399977
0.000923647
0.00388022
0.000952679
0.00374951
0.000979594
0.00100384
0.00360641
0.00500144
7.85584e-06
0.00500568
2.32869e-05
0.00501256
3.84283e-05
0.00502175
5.26431e-05
0.00503258
6.55963e-05
0.00504426
7.6732e-05
0.00505637
8.60352e-05
0.0050687
9.37544e-05
0.00508125
0.000100218
0.00509413
0.00010574
0.00510734
0.000110503
0.00512078
0.00011453
0.00513434
0.000117782
0.0051479
0.000120236
0.00516137
0.00012191
0.00517471
0.000122855
0.00518787
0.000123136
0.00520081
0.000122813
0.00521348
0.000121936
0.00522581
0.00012055
0.00523775
0.000118697
0.00524926
0.000116428
0.00526031
0.000113794
0.00527086
0.000110855
0.00528089
0.000107669
0.00529039
0.0001043
0.00529937
0.000100807
0.00530783
9.72492e-05
0.00531579
9.36803e-05
0.00532329
9.01487e-05
0.00533034
8.66964e-05
0.00533698
8.33587e-05
0.00534325
8.01633e-05
0.0053492
7.71309e-05
0.00535484
7.42757e-05
0.00536022
7.16056e-05
0.00536538
6.91237e-05
0.00537034
6.68283e-05
0.00537512
6.47137e-05
0.00537976
6.27714e-05
0.00538427
6.09907e-05
0.00538867
5.93597e-05
0.00539297
5.78663e-05
0.00539719
5.64982e-05
0.00540134
5.5243e-05
0.00540541
5.40888e-05
0.00540943
5.30239e-05
0.00541339
5.20372e-05
0.00541729
5.11185e-05
0.00542114
5.02582e-05
0.00542493
4.94481e-05
0.00542867
4.86805e-05
0.00543235
4.79488e-05
0.00543598
4.72471e-05
0.00543955
4.65704e-05
0.00544306
4.59145e-05
0.0054465
4.52758e-05
0.00544988
4.46513e-05
0.00545319
4.40385e-05
0.00545644
4.34356e-05
0.0054596
4.28411e-05
0.00546269
4.2254e-05
0.00546571
4.16738e-05
0.00546864
4.11002e-05
0.00547148
4.05334e-05
0.00547424
3.99738e-05
0.00547691
3.9422e-05
0.00547949
3.8879e-05
0.00548198
3.83459e-05
0.00548436
3.78242e-05
0.00548665
3.73159e-05
0.00548884
3.68228e-05
0.00549092
3.6347e-05
0.0054929
3.5891e-05
0.00549477
3.54572e-05
0.00549652
3.50486e-05
0.00549817
3.46685e-05
0.0054997
3.43202e-05
0.00550111
3.40074e-05
0.00550241
3.37337e-05
0.00550359
3.35031e-05
0.00550464
3.33199e-05
0.00550557
3.31886e-05
0.00550638
3.31141e-05
0.00550706
3.31011e-05
0.00550762
3.31542e-05
0.00550804
3.32787e-05
0.00550834
3.34798e-05
0.00550851
3.37631e-05
0.00550854
3.41342e-05
0.00550844
3.45986e-05
0.00550821
3.51625e-05
0.00550784
3.5832e-05
0.00550733
3.66136e-05
0.00550668
3.75139e-05
0.00550588
3.85398e-05
0.00550494
3.96984e-05
0.00550384
4.09971e-05
0.0055026
4.24437e-05
0.0055012
4.40464e-05
0.00549963
4.58135e-05
0.0054979
4.77539e-05
0.005496
4.98769e-05
0.00549392
5.21924e-05
0.00549166
5.47106e-05
0.0054892
5.74425e-05
0.00548654
6.03998e-05
0.00548367
6.35945e-05
0.00548058
6.70399e-05
0.00547726
7.07501e-05
0.0054737
7.474e-05
0.00546988
7.90257e-05
0.00546579
8.36245e-05
0.00546142
8.85546e-05
0.00545674
9.38358e-05
0.00545174
9.94891e-05
0.0054464
0.000105537
0.00544071
0.000112004
0.00543463
0.000118916
0.00542815
0.0001263
0.00542125
0.000134185
0.0054139
0.000142602
0.00540607
0.000151583
0.00539773
0.00016116
0.00538886
0.00017137
0.00537943
0.000182248
0.0053694
0.000193833
0.00535873
0.000206166
0.0053474
0.000219286
0.00533535
0.000233235
0.00532256
0.000248056
0.00530895
0.00026379
0.0052945
0.000280479
0.00527914
0.000298164
0.00526281
0.000316885
0.00524545
0.000336683
0.00522699
0.000357599
0.00520735
0.000379675
0.00518645
0.000402951
0.00516419
0.000427464
0.00514045
0.000453247
0.00511511
0.000480324
0.00508799
0.000508703
0.00505895
0.000538378
0.00502777
0.000569324
0.00499425
0.000601491
0.00495815
0.000634809
0.00491923
0.000669187
0.00487723
0.000704515
0.00483187
0.000740666