/*--------------------------------*- C++ -*----------------------------------*\
| =========                 |                                                 |
| \\      /  F ield         | OpenFOAM: The Open Source CFD Toolbox           |
|  \\    /   O peration     | Version:  2306                                  |
|   \\  /    A nd           | Website:  www.openfoam.com                      |
|    \\/     M anipulation  |                                                 |
\*---------------------------------------------------------------------------*/
FoamFile
{
    version     2.0;
    format      ascii;
    arch        "LSB;label=32;scalar=64";
    class       volVectorField;
    location    "0.075";
    object      U;
}
// * * * * * * * * * * * * * * * * * * * * * * * * * * * * * * * * * * * * * //

dimensions      [0 1 -1 0 0 0 0];

internalField   nonuniform List<vector> 
17600
(
(9.80708 0.085006 0)
(9.62283 0.180497 0)
(9.41198 0.217944 0)
(9.14631 0.225571 0)
(8.83443 0.22509 0)
(8.49843 0.225371 0)
(8.15626 0.226719 0)
(7.81685 0.227106 0)
(7.48288 0.225192 0)
(7.15439 0.220784 0)
(6.83098 0.214407 0)
(6.51283 0.206702 0)
(6.20075 0.198099 0)
(5.89612 0.18878 0)
(5.60042 0.178761 0)
(5.31517 0.168028 0)
(5.0417 0.15658 0)
(4.78144 0.144477 0)
(4.53528 0.131738 0)
(4.30403 0.118451 0)
(4.08833 0.1048 0)
(3.88867 0.0910417 0)
(3.70533 0.0774689 0)
(3.53834 0.0643759 0)
(3.38746 0.0520323 0)
(3.25219 0.0406638 0)
(3.13182 0.0304399 0)
(3.02542 0.0214662 0)
(2.93195 0.0137848 0)
(2.85026 0.00738103 0)
(2.77917 0.0021937 0)
(2.71746 -0.00187201 0)
(2.66395 -0.00493084 0)
(2.61752 -0.00710777 0)
(2.57713 -0.00852726 0)
(2.54183 -0.00931098 0)
(2.51074 -0.00956846 0)
(2.48315 -0.00942424 0)
(2.45843 -0.00899831 0)
(2.43604 -0.00838574 0)
(2.41554 -0.00765715 0)
(2.39655 -0.00686482 0)
(2.37874 -0.00604769 0)
(2.36187 -0.00523449 0)
(2.34575 -0.00444598 0)
(2.3302 -0.00369656 0)
(2.31513 -0.00299575 0)
(2.30043 -0.00234945 0)
(2.28606 -0.00176075 0)
(2.27197 -0.0012305 0)
(2.25813 -0.000757878 0)
(2.24452 -0.000340688 0)
(2.23114 2.43072e-05 0)
(2.21799 0.000340969 0)
(2.20507 0.000613515 0)
(2.19239 0.000846306 0)
(2.17994 0.00104362 0)
(2.16775 0.00120954 0)
(2.15582 0.00134795 0)
(2.14415 0.00146241 0)
(2.13275 0.00155619 0)
(2.12163 0.00163226 0)
(2.11079 0.00169331 0)
(2.10023 0.00174176 0)
(2.08995 0.00177985 0)
(2.07995 0.00180978 0)
(2.07024 0.00183369 0)
(2.0608 0.0018534 0)
(2.05162 0.00187028 0)
(2.04272 0.00188528 0)
(2.03407 0.00189919 0)
(2.02566 0.00191282 0)
(2.01749 0.00192691 0)
(2.00955 0.00194223 0)
(2.00183 0.00195936 0)
(1.99431 0.0019788 0)
(1.98698 0.00200124 0)
(1.97984 0.00202729 0)
(1.97285 0.00205781 0)
(1.96601 0.00209246 0)
(1.95929 0.00213178 0)
(1.95269 0.00217804 0)
(1.94616 0.00223065 0)
(1.93969 0.00228728 0)
(1.93327 0.00234716 0)
(1.92685 0.00241133 0)
(1.92041 0.00248139 0)
(1.91393 0.00255861 0)
(1.90737 0.00264387 0)
(1.90071 0.00273798 0)
(1.8939 0.002842 0)
(1.88692 0.00295713 0)
(1.87973 0.00308436 0)
(1.87229 0.00322443 0)
(1.86457 0.00337798 0)
(1.85652 0.00354568 0)
(1.84811 0.00372826 0)
(1.83929 0.00392651 0)
(1.83002 0.00414122 0)
(1.82025 0.00437325 0)
(1.80994 0.00462348 0)
(1.79903 0.00489285 0)
(1.78749 0.00518231 0)
(1.77525 0.00549278 0)
(1.76226 0.00582521 0)
(1.74846 0.00618049 0)
(1.73381 0.00655948 0)
(1.71823 0.00696299 0)
(1.70168 0.00739185 0)
(1.68407 0.00784674 0)
(1.66536 0.00832796 0)
(1.64547 0.00883617 0)
(1.62434 0.00937207 0)
(1.60188 0.00993587 0)
(1.57803 0.0105276 0)
(1.55272 0.0111473 0)
(1.52584 0.0117948 0)
(1.49734 0.0124697 0)
(1.46711 0.0131713 0)
(1.43508 0.0138987 0)
(1.40114 0.0146501 0)
(1.36521 0.0154235 0)
(1.3272 0.0162158 0)
(1.287 0.0170232 0)
(1.24453 0.0178406 0)
(1.19969 0.0186615 0)
(1.1524 0.0194779 0)
(1.10257 0.0202799 0)
(1.05014 0.0210551 0)
(0.995047 0.0217892 0)
(0.937243 0.0224648 0)
(0.876703 0.0230616 0)
(0.813428 0.0235564 0)
(0.747442 0.0239224 0)
(0.678807 0.0241299 0)
(0.607623 0.0241457 0)
(0.534037 0.0239343 0)
(0.458246 0.0234583 0)
(0.380511 0.0226799 0)
(0.301151 0.0215633 0)
(0.220563 0.0200768 0)
(0.139207 0.0181977 0)
(0.0576103 0.0159146 0)
(-0.0236576 0.0132527 0)
(-0.103854 0.0102947 0)
(-0.18224 0.00705466 0)
(-0.258177 0.00364934 0)
(-0.330986 0.000256928 0)
(-0.399983 -0.00292441 0)
(-0.464609 -0.00566083 0)
(-0.524408 -0.00772599 0)
(-0.579066 -0.00893903 0)
(-0.62836 -0.00925972 0)
(-0.672077 -0.00888476 0)
(-0.710021 -0.00799102 0)
(-0.742018 -0.00704796 0)
(-0.767822 -0.00669801 0)
(-0.787186 -0.00734134 0)
(-0.799977 -0.00907648 0)
(-0.806238 -0.0117822 0)
(10.0008 0.122277 0)
(10.0676 0.272129 0)
(10.1383 0.342307 0)
(10.1915 0.367531 0)
(10.2162 0.377214 0)
(10.2123 0.385731 0)
(10.1867 0.395735 0)
(10.1459 0.405161 0)
(10.0941 0.411897 0)
(10.0332 0.41519 0)
(9.96356 0.415356 0)
(9.88524 0.413084 0)
(9.79848 0.408923 0)
(9.70395 0.403153 0)
(9.60246 0.395816 0)
(9.49505 0.386867 0)
(9.38264 0.376241 0)
(9.26625 0.363925 0)
(9.14665 0.349939 0)
(9.02466 0.334381 0)
(8.90115 0.317435 0)
(8.77692 0.299354 0)
(8.65276 0.280432 0)
(8.52939 0.260991 0)
(8.40745 0.241358 0)
(8.28754 0.221856 0)
(8.17015 0.202784 0)
(8.05571 0.184409 0)
(7.94457 0.166956 0)
(7.837 0.150599 0)
(7.7332 0.135457 0)
(7.63328 0.121604 0)
(7.53729 0.109063 0)
(7.44524 0.0978191 0)
(7.35704 0.0878242 0)
(7.27262 0.07901 0)
(7.19181 0.0712869 0)
(7.11444 0.0645707 0)
(7.04036 0.0587807 0)
(6.96942 0.0538282 0)
(6.90145 0.0496165 0)
(6.83629 0.0460463 0)
(6.77375 0.0430209 0)
(6.71369 0.0404513 0)
(6.65594 0.0382586 0)
(6.60036 0.0363746 0)
(6.54683 0.0347415 0)
(6.49523 0.033311 0)
(6.44544 0.0320425 0)
(6.39737 0.0309029 0)
(6.35093 0.0298647 0)
(6.30605 0.0289058 0)
(6.26264 0.0280086 0)
(6.22066 0.0271591 0)
(6.18003 0.0263466 0)
(6.14072 0.0255628 0)
(6.10268 0.0248018 0)
(6.06586 0.024059 0)
(6.03023 0.0233314 0)
(5.99576 0.0226168 0)
(5.9624 0.0219141 0)
(5.93015 0.0212228 0)
(5.89896 0.0205428 0)
(5.86881 0.0198744 0)
(5.83967 0.0192184 0)
(5.81153 0.0185756 0)
(5.78436 0.0179471 0)
(5.75813 0.0173343 0)
(5.73282 0.0167391 0)
(5.70841 0.0161633 0)
(5.68487 0.0156084 0)
(5.66218 0.0150751 0)
(5.64032 0.0145645 0)
(5.61926 0.0140777 0)
(5.59896 0.0136167 0)
(5.57941 0.0131842 0)
(5.56056 0.0127826 0)
(5.5424 0.0124146 0)
(5.52488 0.0120823 0)
(5.50797 0.0117878 0)
(5.49163 0.0115328 0)
(5.47582 0.0113199 0)
(5.46049 0.0111512 0)
(5.44561 0.0110285 0)
(5.43112 0.0109539 0)
(5.41698 0.01093 0)
(5.40312 0.0109593 0)
(5.38951 0.0110439 0)
(5.37608 0.0111856 0)
(5.36277 0.011386 0)
(5.34952 0.0116465 0)
(5.33627 0.0119684 0)
(5.32295 0.0123537 0)
(5.30951 0.0128047 0)
(5.29586 0.0133238 0)
(5.28193 0.0139132 0)
(5.26766 0.0145756 0)
(5.25296 0.0153136 0)
(5.23776 0.01613 0)
(5.22197 0.0170274 0)
(5.20552 0.0180085 0)
(5.18831 0.019076 0)
(5.17026 0.0202327 0)
(5.15127 0.0214813 0)
(5.13125 0.0228245 0)
(5.11011 0.0242654 0)
(5.08775 0.0258069 0)
(5.06406 0.0274523 0)
(5.03893 0.0292054 0)
(5.01227 0.0310703 0)
(4.98395 0.0330504 0)
(4.95387 0.0351503 0)
(4.92189 0.0373759 0)
(4.88789 0.0397326 0)
(4.85175 0.0422261 0)
(4.81331 0.0448629 0)
(4.77243 0.0476497 0)
(4.72896 0.0505936 0)
(4.68273 0.0537018 0)
(4.63356 0.0569814 0)
(4.58127 0.0604391 0)
(4.52565 0.0640812 0)
(4.46651 0.0679127 0)
(4.40362 0.0719377 0)
(4.33675 0.0761583 0)
(4.26565 0.0805748 0)
(4.19006 0.0851847 0)
(4.10974 0.089983 0)
(4.02439 0.0949604 0)
(3.93373 0.100104 0)
(3.83748 0.105396 0)
(3.73533 0.110812 0)
(3.62699 0.116322 0)
(3.51214 0.121888 0)
(3.39049 0.127462 0)
(3.26173 0.132987 0)
(3.12559 0.138395 0)
(2.98178 0.143603 0)
(2.83006 0.148514 0)
(2.67022 0.153018 0)
(2.5021 0.156986 0)
(2.32561 0.160278 0)
(2.14075 0.162738 0)
(1.94762 0.1642 0)
(1.7465 0.164534 0)
(1.53783 0.163547 0)
(1.32231 0.161083 0)
(1.10087 0.157024 0)
(0.874817 0.151286 0)
(0.645842 0.143826 0)
(0.416063 0.134657 0)
(0.188038 0.123838 0)
(-0.0354166 0.111496 0)
(-0.251064 0.0978374 0)
(-0.455598 0.0832309 0)
(-0.646388 0.0682165 0)
(-0.821398 0.053491 0)
(-0.979232 0.039914 0)
(-1.11957 0.0282214 0)
(-1.24285 0.0185303 0)
(10.0003 0.0614079 0)
(10.0359 0.160309 0)
(10.0898 0.227799 0)
(10.1516 0.268417 0)
(10.2101 0.29324 0)
(10.2592 0.312093 0)
(10.2981 0.32994 0)
(10.3293 0.34739 0)
(10.3558 0.363257 0)
(10.379 0.376441 0)
(10.3995 0.386544 0)
(10.4167 0.393745 0)
(10.43 0.398427 0)
(10.4391 0.400897 0)
(10.4437 0.4013 0)
(10.4439 0.399642 0)
(10.4396 0.395883 0)
(10.431 0.390002 0)
(10.418 0.38206 0)
(10.4009 0.372185 0)
(10.3797 0.360564 0)
(10.3547 0.347429 0)
(10.326 0.333051 0)
(10.294 0.317726 0)
(10.2588 0.301768 0)
(10.2209 0.285488 0)
(10.1805 0.26919 0)
(10.1381 0.253149 0)
(10.094 0.237605 0)
(10.0486 0.222755 0)
(10.0021 0.208743 0)
(9.95493 0.195669 0)
(9.90733 0.183587 0)
(9.85952 0.17251 0)
(9.81171 0.162418 0)
(9.76406 0.153271 0)
(9.7167 0.145009 0)
(9.66972 0.137573 0)
(9.62324 0.130905 0)
(9.57729 0.124942 0)
(9.5319 0.119608 0)
(9.48708 0.114825 0)
(9.44284 0.110516 0)
(9.39919 0.106608 0)
(9.35612 0.103036 0)
(9.31364 0.0997444 0)
(9.27174 0.0966865 0)
(9.23042 0.0938222 0)
(9.18968 0.0911182 0)
(9.14951 0.0885467 0)
(9.10991 0.0860849 0)
(9.07088 0.0837141 0)
(9.03242 0.081419 0)
(8.99452 0.0791874 0)
(8.9572 0.0770096 0)
(8.92045 0.0748782 0)
(8.88428 0.0727874 0)
(8.8487 0.0707328 0)
(8.81371 0.0687112 0)
(8.77931 0.0667204 0)
(8.74552 0.064759 0)
(8.71235 0.0628263 0)
(8.67979 0.0609221 0)
(8.64785 0.0590467 0)
(8.61655 0.0572009 0)
(8.58588 0.0553858 0)
(8.55586 0.0536029 0)
(8.52647 0.0518542 0)
(8.49774 0.0501418 0)
(8.46965 0.0484682 0)
(8.44222 0.0468359 0)
(8.41543 0.0452473 0)
(8.3893 0.0437046 0)
(8.3638 0.04221 0)
(8.33894 0.0407663 0)
(8.31471 0.0393766 0)
(8.2911 0.0380447 0)
(8.26809 0.0367747 0)
(8.24568 0.0355709 0)
(8.22384 0.0344378 0)
(8.20255 0.0333801 0)
(8.1818 0.032403 0)
(8.16156 0.0315122 0)
(8.1418 0.0307133 0)
(8.12249 0.0300116 0)
(8.1036 0.0294124 0)
(8.0851 0.0289219 0)
(8.06694 0.0285465 0)
(8.04908 0.0282919 0)
(8.03148 0.0281634 0)
(8.01409 0.0281655 0)
(7.99687 0.0283027 0)
(7.97975 0.0285797 0)
(7.96269 0.0290007 0)
(7.94562 0.0295704 0)
(7.92849 0.0302932 0)
(7.91123 0.0311738 0)
(7.89376 0.0322175 0)
(7.87602 0.0334294 0)
(7.85794 0.034815 0)
(7.83944 0.0363796 0)
(7.82044 0.0381292 0)
(7.80085 0.0400694 0)
(7.78059 0.0422062 0)
(7.75956 0.0445454 0)
(7.73768 0.0470934 0)
(7.71484 0.0498563 0)
(7.69094 0.052841 0)
(7.66588 0.0560547 0)
(7.63954 0.0595054 0)
(7.6118 0.0632011 0)
(7.58255 0.0671509 0)
(7.55164 0.0713658 0)
(7.51896 0.0758574 0)
(7.48435 0.0806381 0)
(7.44767 0.0857221 0)
(7.40876 0.0911248 0)
(7.36744 0.0968632 0)
(7.32355 0.102956 0)
(7.27689 0.109421 0)
(7.22727 0.11628 0)
(7.17446 0.123553 0)
(7.11824 0.13126 0)
(7.05837 0.139422 0)
(6.99459 0.148057 0)
(6.92663 0.157184 0)
(6.85419 0.166816 0)
(6.77696 0.176966 0)
(6.69462 0.187643 0)
(6.60681 0.198851 0)
(6.51319 0.21059 0)
(6.41335 0.222854 0)
(6.30692 0.235631 0)
(6.19345 0.248901 0)
(6.07254 0.262637 0)
(5.94372 0.276804 0)
(5.80652 0.291352 0)
(5.66046 0.306223 0)
(5.50504 0.321337 0)
(5.33973 0.336604 0)
(5.16401 0.351899 0)
(4.9773 0.367081 0)
(4.77906 0.381964 0)
(4.56872 0.396332 0)
(4.34572 0.40992 0)
(4.10957 0.422409 0)
(3.85978 0.433427 0)
(3.59603 0.442538 0)
(3.31807 0.449249 0)
(3.02589 0.452994 0)
(2.7197 0.453149 0)
(2.40008 0.449045 0)
(2.06794 0.440018 0)
(1.72481 0.425547 0)
(1.37285 0.405237 0)
(1.01512 0.379042 0)
(0.655654 0.347374 0)
(0.299619 0.311184 0)
(-0.0466885 0.271844 0)
(-0.376172 0.23098 0)
(10.0002 0.0417756 0)
(10.0198 0.117258 0)
(10.0537 0.178886 0)
(10.0983 0.22446 0)
(10.1468 0.256512 0)
(10.1935 0.279975 0)
(10.2356 0.299219 0)
(10.2733 0.316574 0)
(10.3083 0.332425 0)
(10.3423 0.346268 0)
(10.3761 0.357612 0)
(10.4098 0.366321 0)
(10.443 0.372551 0)
(10.4751 0.376554 0)
(10.5058 0.378529 0)
(10.5348 0.378572 0)
(10.562 0.376722 0)
(10.5871 0.373007 0)
(10.6101 0.367491 0)
(10.6307 0.360282 0)
(10.6488 0.351527 0)
(10.6643 0.341406 0)
(10.6771 0.330133 0)
(10.6872 0.317941 0)
(10.6945 0.305081 0)
(10.6991 0.291804 0)
(10.7011 0.278358 0)
(10.7006 0.264973 0)
(10.6979 0.251853 0)
(10.6931 0.239172 0)
(10.6864 0.227069 0)
(10.6781 0.215645 0)
(10.6684 0.204971 0)
(10.6575 0.195082 0)
(10.6455 0.185992 0)
(10.6327 0.177687 0)
(10.6191 0.170144 0)
(10.605 0.163316 0)
(10.5904 0.157141 0)
(10.5754 0.151556 0)
(10.56 0.146499 0)
(10.5443 0.141909 0)
(10.5283 0.137729 0)
(10.5121 0.133905 0)
(10.4957 0.130387 0)
(10.4791 0.12713 0)
(10.4623 0.124095 0)
(10.4454 0.121245 0)
(10.4283 0.118551 0)
(10.411 0.115985 0)
(10.3937 0.113524 0)
(10.3762 0.111148 0)
(10.3586 0.10884 0)
(10.3409 0.106587 0)
(10.3231 0.104378 0)
(10.3052 0.102202 0)
(10.2872 0.100053 0)
(10.2691 0.0979241 0)
(10.251 0.0958119 0)
(10.2329 0.0937127 0)
(10.2147 0.0916243 0)
(10.1965 0.0895454 0)
(10.1783 0.0874758 0)
(10.1601 0.0854158 0)
(10.142 0.0833663 0)
(10.1239 0.0813288 0)
(10.1058 0.0793054 0)
(10.0878 0.0772985 0)
(10.0698 0.075311 0)
(10.052 0.0733461 0)
(10.0342 0.0714075 0)
(10.0166 0.0694986 0)
(9.99907 0.0676229 0)
(9.98167 0.0657843 0)
(9.96441 0.0639873 0)
(9.94729 0.0622371 0)
(9.93031 0.0605397 0)
(9.91348 0.0589017 0)
(9.89681 0.0573296 0)
(9.88028 0.0558304 0)
(9.86389 0.0544111 0)
(9.84766 0.0530792 0)
(9.83157 0.0518429 0)
(9.81561 0.0507102 0)
(9.79977 0.0496888 0)
(9.78406 0.0487863 0)
(9.76844 0.048011 0)
(9.75292 0.047372 0)
(9.73746 0.0468779 0)
(9.72206 0.0465366 0)
(9.70668 0.046356 0)
(9.69131 0.0463445 0)
(9.67592 0.0465104 0)
(9.66047 0.0468619 0)
(9.64494 0.0474066 0)
(9.6293 0.0481524 0)
(9.61349 0.0491074 0)
(9.59749 0.05028 0)
(9.58125 0.0516789 0)
(9.56473 0.0533126 0)
(9.54787 0.0551901 0)
(9.53062 0.0573203 0)
(9.51292 0.0597128 0)
(9.49472 0.0623772 0)
(9.47595 0.0653232 0)
(9.45655 0.0685612 0)
(9.43644 0.0721019 0)
(9.41555 0.0759567 0)
(9.3938 0.0801378 0)
(9.37109 0.0846582 0)
(9.34735 0.0895322 0)
(9.32246 0.0947752 0)
(9.29634 0.100404 0)
(9.26887 0.106437 0)
(9.23992 0.112894 0)
(9.20939 0.119798 0)
(9.17713 0.127172 0)
(9.14301 0.135043 0)
(9.10687 0.143438 0)
(9.06856 0.152387 0)
(9.0279 0.161923 0)
(8.98471 0.172077 0)
(8.93879 0.182885 0)
(8.88994 0.19438 0)
(8.83794 0.206598 0)
(8.78253 0.219572 0)
(8.72347 0.233337 0)
(8.66048 0.247923 0)
(8.59327 0.263358 0)
(8.52151 0.279668 0)
(8.44488 0.296874 0)
(8.36301 0.31499 0)
(8.27551 0.334027 0)
(8.18196 0.353984 0)
(8.08194 0.374852 0)
(7.97495 0.396614 0)
(7.86052 0.419236 0)
(7.7381 0.442676 0)
(7.60715 0.466872 0)
(7.46708 0.491754 0)
(7.31731 0.517226 0)
(7.15717 0.543177 0)
(6.98604 0.569468 0)
(6.8032 0.595929 0)
(6.60793 0.622348 0)
(6.39945 0.648463 0)
(6.17692 0.673949 0)
(5.93949 0.698409 0)
(5.68623 0.721364 0)
(5.41619 0.742243 0)
(5.12843 0.760401 0)
(4.82208 0.775095 0)
(4.4963 0.785545 0)
(4.15054 0.790924 0)
(3.78442 0.790379 0)
(3.39803 0.783054 0)
(2.99199 0.768063 0)
(2.56753 0.744505 0)
(2.12672 0.711494 0)
(1.67262 0.668361 0)
(10.0001 0.0316559 0)
(10.0128 0.0917201 0)
(10.036 0.145002 0)
(10.0682 0.188646 0)
(10.1059 0.222213 0)
(10.1452 0.247631 0)
(10.183 0.267706 0)
(10.2184 0.284738 0)
(10.2518 0.299825 0)
(10.2844 0.313099 0)
(10.317 0.324302 0)
(10.3499 0.333222 0)
(10.3832 0.339843 0)
(10.4164 0.3443 0)
(10.4492 0.346772 0)
(10.4814 0.347407 0)
(10.5127 0.346309 0)
(10.543 0.343556 0)
(10.5723 0.339224 0)
(10.6003 0.333415 0)
(10.6268 0.326255 0)
(10.6519 0.317899 0)
(10.6752 0.308524 0)
(10.6967 0.298326 0)
(10.7164 0.287513 0)
(10.7341 0.276295 0)
(10.75 0.264876 0)
(10.764 0.253452 0)
(10.7762 0.242195 0)
(10.7868 0.231256 0)
(10.7958 0.22076 0)
(10.8035 0.210802 0)
(10.8099 0.201449 0)
(10.8152 0.192744 0)
(10.8196 0.184708 0)
(10.8231 0.177338 0)
(10.8259 0.170615 0)
(10.8281 0.164505 0)
(10.8298 0.158961 0)
(10.831 0.153932 0)
(10.8318 0.149369 0)
(10.8322 0.145225 0)
(10.8323 0.141454 0)
(10.8321 0.138013 0)
(10.8316 0.134859 0)
(10.8309 0.131954 0)
(10.8298 0.129262 0)
(10.8286 0.126748 0)
(10.8271 0.124383 0)
(10.8253 0.122141 0)
(10.8234 0.119998 0)
(10.8211 0.117935 0)
(10.8187 0.115935 0)
(10.8159 0.113983 0)
(10.813 0.112067 0)
(10.8098 0.110177 0)
(10.8063 0.108305 0)
(10.8026 0.106446 0)
(10.7987 0.104593 0)
(10.7946 0.102744 0)
(10.7901 0.100895 0)
(10.7855 0.0990447 0)
(10.7806 0.0971931 0)
(10.7756 0.0953402 0)
(10.7702 0.0934868 0)
(10.7647 0.0916343 0)
(10.759 0.0897847 0)
(10.7531 0.0879404 0)
(10.7469 0.0861044 0)
(10.7406 0.0842801 0)
(10.7341 0.0824714 0)
(10.7274 0.0806822 0)
(10.7205 0.078917 0)
(10.7135 0.0771805 0)
(10.7063 0.0754783 0)
(10.6989 0.0738167 0)
(10.6914 0.0722027 0)
(10.6837 0.0706437 0)
(10.6759 0.069147 0)
(10.6679 0.0677204 0)
(10.6597 0.0663718 0)
(10.6515 0.0651097 0)
(10.643 0.0639435 0)
(10.6345 0.0628825 0)
(10.6258 0.0619355 0)
(10.6169 0.0611114 0)
(10.6079 0.0604198 0)
(10.5987 0.0598704 0)
(10.5893 0.0594732 0)
(10.5798 0.0592374 0)
(10.5702 0.0591729 0)
(10.5603 0.0592905 0)
(10.5502 0.059601 0)
(10.5399 0.0601149 0)
(10.5294 0.0608424 0)
(10.5186 0.0617937 0)
(10.5076 0.0629798 0)
(10.4963 0.0644116 0)
(10.4847 0.0661006 0)
(10.4727 0.0680579 0)
(10.4604 0.0702954 0)
(10.4477 0.0728251 0)
(10.4346 0.0756597 0)
(10.421 0.078812 0)
(10.407 0.0822955 0)
(10.3923 0.0861242 0)
(10.3771 0.0903131 0)
(10.3613 0.0948779 0)
(10.3448 0.0998351 0)
(10.3275 0.105203 0)
(10.3094 0.111001 0)
(10.2904 0.117251 0)
(10.2705 0.123974 0)
(10.2496 0.131195 0)
(10.2275 0.138942 0)
(10.2043 0.147243 0)
(10.1797 0.15613 0)
(10.1538 0.165638 0)
(10.1263 0.175802 0)
(10.0972 0.186661 0)
(10.0664 0.198258 0)
(10.0337 0.210634 0)
(9.99892 0.223837 0)
(9.96197 0.237912 0)
(9.92266 0.252909 0)
(9.88082 0.268875 0)
(9.83624 0.28586 0)
(9.78873 0.303912 0)
(9.73804 0.323077 0)
(9.68395 0.343399 0)
(9.62617 0.364922 0)
(9.56444 0.387682 0)
(9.49843 0.411715 0)
(9.42781 0.43705 0)
(9.35222 0.463708 0)
(9.27126 0.491704 0)
(9.18451 0.521038 0)
(9.09149 0.551698 0)
(8.9917 0.583653 0)
(8.8846 0.616854 0)
(8.76961 0.651226 0)
(8.64611 0.686675 0)
(8.51345 0.72308 0)
(8.37097 0.760294 0)
(8.21794 0.798144 0)
(8.05364 0.836419 0)
(7.87727 0.874868 0)
(7.68798 0.913188 0)
(7.48484 0.951012 0)
(7.26681 0.98789 0)
(7.03276 1.02329 0)
(6.78144 1.05658 0)
(6.51149 1.08701 0)
(6.22147 1.11374 0)
(5.9099 1.13581 0)
(5.57529 1.15216 0)
(5.21623 1.16166 0)
(4.83154 1.16308 0)
(4.42028 1.15521 0)
(3.98204 1.13691 0)
(10.0001 0.0253247 0)
(10.0092 0.0742685 0)
(10.0261 0.119398 0)
(10.0502 0.158529 0)
(10.0797 0.190616 0)
(10.1121 0.216092 0)
(10.1452 0.236408 0)
(10.1774 0.253206 0)
(10.2084 0.26767 0)
(10.2387 0.280295 0)
(10.2689 0.291091 0)
(10.2994 0.299909 0)
(10.3303 0.306662 0)
(10.3613 0.31139 0)
(10.3923 0.314221 0)
(10.4229 0.315307 0)
(10.4529 0.314785 0)
(10.4823 0.312761 0)
(10.5109 0.309329 0)
(10.5386 0.304586 0)
(10.5653 0.298645 0)
(10.5909 0.291638 0)
(10.6152 0.283718 0)
(10.6383 0.275051 0)
(10.6599 0.265813 0)
(10.6801 0.256182 0)
(10.6988 0.246334 0)
(10.7161 0.236434 0)
(10.732 0.226633 0)
(10.7467 0.217064 0)
(10.7601 0.207837 0)
(10.7724 0.199039 0)
(10.7837 0.190736 0)
(10.7941 0.18297 0)
(10.8038 0.175763 0)
(10.8128 0.16912 0)
(10.8212 0.16303 0)
(10.8291 0.157468 0)
(10.8366 0.1524 0)
(10.8437 0.14779 0)
(10.8505 0.143598 0)
(10.857 0.139788 0)
(10.8633 0.136321 0)
(10.8694 0.133161 0)
(10.8753 0.130271 0)
(10.881 0.127618 0)
(10.8865 0.125167 0)
(10.8918 0.122889 0)
(10.897 0.120756 0)
(10.902 0.118744 0)
(10.9068 0.11683 0)
(10.9114 0.114997 0)
(10.9159 0.113227 0)
(10.9202 0.111507 0)
(10.9243 0.109825 0)
(10.9282 0.108172 0)
(10.9319 0.106538 0)
(10.9354 0.104919 0)
(10.9387 0.103309 0)
(10.9417 0.101703 0)
(10.9446 0.1001 0)
(10.9472 0.0984973 0)
(10.9496 0.096894 0)
(10.9517 0.0952902 0)
(10.9536 0.0936865 0)
(10.9553 0.0920838 0)
(10.9568 0.0904838 0)
(10.958 0.0888888 0)
(10.9589 0.0873014 0)
(10.9597 0.0857251 0)
(10.9601 0.0841639 0)
(10.9604 0.082622 0)
(10.9604 0.0811038 0)
(10.9601 0.0796145 0)
(10.9596 0.0781595 0)
(10.9589 0.076745 0)
(10.9579 0.0753779 0)
(10.9566 0.0740654 0)
(10.9551 0.0728149 0)
(10.9533 0.0716341 0)
(10.9513 0.0705311 0)
(10.9491 0.0695149 0)
(10.9466 0.0685952 0)
(10.9438 0.0677816 0)
(10.9408 0.0670835 0)
(10.9375 0.0665104 0)
(10.934 0.0660722 0)
(10.9302 0.0657797 0)
(10.9261 0.0656434 0)
(10.9218 0.065674 0)
(10.9172 0.0658824 0)
(10.9123 0.0662799 0)
(10.9072 0.0668781 0)
(10.9017 0.0676887 0)
(10.896 0.0687231 0)
(10.8899 0.069993 0)
(10.8836 0.0715107 0)
(10.8769 0.0732889 0)
(10.8699 0.0753408 0)
(10.8625 0.0776795 0)
(10.8548 0.0803189 0)
(10.8466 0.0832734 0)
(10.8381 0.0865579 0)
(10.8291 0.090188 0)
(10.8197 0.0941802 0)
(10.8098 0.0985513 0)
(10.7994 0.10332 0)
(10.7884 0.108504 0)
(10.7769 0.114125 0)
(10.7647 0.120205 0)
(10.7519 0.126768 0)
(10.7384 0.133839 0)
(10.7241 0.141444 0)
(10.7091 0.149615 0)
(10.6931 0.158381 0)
(10.6763 0.167779 0)
(10.6584 0.177846 0)
(10.6395 0.188621 0)
(10.6194 0.200147 0)
(10.5981 0.212471 0)
(10.5755 0.225641 0)
(10.5514 0.239708 0)
(10.5259 0.254725 0)
(10.4988 0.270749 0)
(10.4699 0.287837 0)
(10.4391 0.306049 0)
(10.4064 0.325447 0)
(10.3715 0.346093 0)
(10.3344 0.368049 0)
(10.2947 0.391375 0)
(10.2524 0.416132 0)
(10.2073 0.442378 0)
(10.1591 0.470168 0)
(10.1075 0.499554 0)
(10.0524 0.530585 0)
(9.9934 0.563304 0)
(9.93024 0.597747 0)
(9.86255 0.633941 0)
(9.78994 0.671895 0)
(9.71199 0.711601 0)
(9.62823 0.753027 0)
(9.53813 0.796115 0)
(9.44113 0.840775 0)
(9.33663 0.886888 0)
(9.22401 0.934303 0)
(9.10258 0.982835 0)
(8.97166 1.03227 0)
(8.83051 1.08235 0)
(8.67833 1.13277 0)
(8.51429 1.1832 0)
(8.3374 1.23321 0)
(8.1466 1.2823 0)
(7.94063 1.32988 0)
(7.71809 1.37523 0)
(7.47738 1.41753 0)
(7.21671 1.45582 0)
(6.93412 1.48902 0)
(6.62755 1.51597 0)
(6.29492 1.53545 0)
(5.93414 1.54617 0)
(10.0001 0.020828 0)
(10.007 0.0614783 0)
(10.02 0.099682 0)
(10.0387 0.134036 0)
(10.0623 0.163528 0)
(10.0892 0.187975 0)
(10.1178 0.207963 0)
(10.1466 0.224478 0)
(10.1752 0.238468 0)
(10.2034 0.250524 0)
(10.2315 0.260849 0)
(10.2597 0.269414 0)
(10.2884 0.276148 0)
(10.3172 0.281041 0)
(10.3461 0.28417 0)
(10.3747 0.285663 0)
(10.403 0.285653 0)
(10.4307 0.284261 0)
(10.4578 0.281592 0)
(10.4842 0.277743 0)
(10.5097 0.272817 0)
(10.5342 0.266931 0)
(10.5578 0.260216 0)
(10.5802 0.252814 0)
(10.6015 0.244875 0)
(10.6216 0.236553 0)
(10.6404 0.227999 0)
(10.6581 0.219355 0)
(10.6746 0.210753 0)
(10.69 0.202308 0)
(10.7044 0.194121 0)
(10.7178 0.18627 0)
(10.7303 0.178817 0)
(10.7421 0.171804 0)
(10.7532 0.165256 0)
(10.7637 0.159183 0)
(10.7737 0.15358 0)
(10.7833 0.148433 0)
(10.7924 0.14372 0)
(10.8013 0.139414 0)
(10.8099 0.135486 0)
(10.8182 0.131904 0)
(10.8264 0.128638 0)
(10.8344 0.125656 0)
(10.8422 0.122927 0)
(10.8498 0.120421 0)
(10.8574 0.118109 0)
(10.8648 0.115964 0)
(10.8721 0.113961 0)
(10.8793 0.112078 0)
(10.8864 0.110296 0)
(10.8933 0.108596 0)
(10.9001 0.106964 0)
(10.9068 0.105387 0)
(10.9134 0.103853 0)
(10.9198 0.102355 0)
(10.926 0.100883 0)
(10.9321 0.0994312 0)
(10.9381 0.0979951 0)
(10.9439 0.0965704 0)
(10.9495 0.0951542 0)
(10.9549 0.0937447 0)
(10.9602 0.0923408 0)
(10.9652 0.0909422 0)
(10.9701 0.0895491 0)
(10.9748 0.0881625 0)
(10.9792 0.0867835 0)
(10.9835 0.0854142 0)
(10.9875 0.0840572 0)
(10.9913 0.0827159 0)
(10.9949 0.0813942 0)
(10.9983 0.0800962 0)
(11.0014 0.0788261 0)
(11.0044 0.0775885 0)
(11.007 0.0763887 0)
(11.0095 0.0752327 0)
(11.0116 0.0741269 0)
(11.0136 0.0730786 0)
(11.0153 0.072095 0)
(11.0167 0.0711838 0)
(11.0179 0.0703532 0)
(11.0188 0.0696121 0)
(11.0194 0.0689701 0)
(11.0198 0.0684368 0)
(11.0199 0.0680218 0)
(11.0198 0.0677346 0)
(11.0193 0.0675853 0)
(11.0186 0.0675849 0)
(11.0177 0.0677446 0)
(11.0164 0.0680753 0)
(11.0149 0.0685883 0)
(11.013 0.069295 0)
(11.0109 0.0702072 0)
(11.0085 0.0713369 0)
(11.0058 0.0726966 0)
(11.0028 0.0742988 0)
(10.9995 0.076157 0)
(10.9958 0.0782849 0)
(10.9919 0.0806967 0)
(10.9876 0.0834073 0)
(10.9829 0.0864318 0)
(10.9779 0.0897864 0)
(10.9725 0.0934878 0)
(10.9667 0.0975536 0)
(10.9605 0.102002 0)
(10.9539 0.106853 0)
(10.9468 0.112126 0)
(10.9393 0.117844 0)
(10.9313 0.12403 0)
(10.9227 0.130708 0)
(10.9136 0.137905 0)
(10.904 0.145651 0)
(10.8937 0.153976 0)
(10.8827 0.162912 0)
(10.871 0.172496 0)
(10.8586 0.182766 0)
(10.8455 0.193763 0)
(10.8314 0.205532 0)
(10.8165 0.218119 0)
(10.8006 0.231576 0)
(10.7837 0.245956 0)
(10.7657 0.261315 0)
(10.7466 0.277713 0)
(10.7262 0.29521 0)
(10.7045 0.313872 0)
(10.6815 0.333766 0)
(10.6569 0.354961 0)
(10.6308 0.37753 0)
(10.603 0.401545 0)
(10.5733 0.427078 0)
(10.5418 0.454203 0)
(10.5082 0.48299 0)
(10.4724 0.51351 0)
(10.4342 0.545831 0)
(10.3934 0.580019 0)
(10.35 0.616139 0)
(10.3036 0.654252 0)
(10.254 0.694416 0)
(10.201 0.736678 0)
(10.1442 0.781071 0)
(10.0834 0.82761 0)
(10.0182 0.876283 0)
(9.94811 0.927047 0)
(9.87269 0.979822 0)
(9.79142 1.03449 0)
(9.70376 1.0909 0)
(9.60912 1.14886 0)
(9.50689 1.20814 0)
(9.39642 1.26848 0)
(9.27703 1.32959 0)
(9.14797 1.39112 0)
(9.00843 1.45268 0)
(8.85745 1.51383 0)
(8.69396 1.57403 0)
(8.51669 1.63265 0)
(8.32414 1.68895 0)
(8.11459 1.74209 0)
(7.8861 1.79109 0)
(7.63649 1.83488 0)
(7.36337 1.87226 0)
(10.0001 0.0174321 0)
(10.0056 0.0516464 0)
(10.016 0.0841945 0)
(10.0311 0.114145 0)
(10.0504 0.140693 0)
(10.0729 0.163463 0)
(10.0976 0.182591 0)
(10.1234 0.198583 0)
(10.1495 0.212075 0)
(10.1756 0.223588 0)
(10.2018 0.233409 0)
(10.2282 0.241614 0)
(10.2548 0.248186 0)
(10.2817 0.253111 0)
(10.3087 0.256433 0)
(10.3356 0.258243 0)
(10.3623 0.258658 0)
(10.3885 0.257796 0)
(10.4142 0.255764 0)
(10.4392 0.252661 0)
(10.4635 0.248584 0)
(10.487 0.243637 0)
(10.5096 0.237935 0)
(10.5313 0.231601 0)
(10.5519 0.224765 0)
(10.5715 0.217558 0)
(10.5901 0.210111 0)
(10.6076 0.202547 0)
(10.624 0.194981 0)
(10.6395 0.187516 0)
(10.6541 0.180238 0)
(10.6678 0.173221 0)
(10.6807 0.166521 0)
(10.6928 0.16018 0)
(10.7044 0.154223 0)
(10.7154 0.148665 0)
(10.7259 0.143507 0)
(10.736 0.138743 0)
(10.7457 0.134359 0)
(10.7551 0.130335 0)
(10.7642 0.126649 0)
(10.7731 0.123277 0)
(10.7818 0.120192 0)
(10.7903 0.117368 0)
(10.7986 0.114779 0)
(10.8068 0.112398 0)
(10.8149 0.110201 0)
(10.8229 0.108163 0)
(10.8307 0.106264 0)
(10.8385 0.104483 0)
(10.8461 0.102802 0)
(10.8536 0.101206 0)
(10.861 0.099682 0)
(10.8684 0.0982166 0)
(10.8756 0.0968001 0)
(10.8826 0.0954237 0)
(10.8896 0.0940801 0)
(10.8964 0.0927631 0)
(10.9031 0.0914678 0)
(10.9097 0.0901902 0)
(10.9161 0.0889273 0)
(10.9223 0.0876772 0)
(10.9284 0.0864386 0)
(10.9344 0.0852112 0)
(10.9402 0.0839953 0)
(10.9458 0.0827916 0)
(10.9512 0.0816013 0)
(10.9564 0.0804265 0)
(10.9615 0.0792696 0)
(10.9664 0.0781337 0)
(10.9711 0.0770223 0)
(10.9755 0.0759392 0)
(10.9798 0.0748885 0)
(10.9839 0.0738747 0)
(10.9877 0.0729029 0)
(10.9913 0.0719793 0)
(10.9947 0.0711102 0)
(10.9979 0.0703028 0)
(11.0009 0.0695642 0)
(11.0036 0.0689021 0)
(11.006 0.0683244 0)
(11.0083 0.0678399 0)
(11.0103 0.0674578 0)
(11.012 0.0671876 0)
(11.0135 0.0670387 0)
(11.0147 0.0670206 0)
(11.0157 0.0671435 0)
(11.0164 0.0674184 0)
(11.0169 0.0678565 0)
(11.0171 0.068469 0)
(11.017 0.0692668 0)
(11.0167 0.0702616 0)
(11.0161 0.0714655 0)
(11.0152 0.072891 0)
(11.014 0.0745512 0)
(11.0126 0.0764596 0)
(11.0109 0.0786301 0)
(11.0088 0.0810775 0)
(11.0065 0.0838167 0)
(11.0038 0.0868637 0)
(11.0009 0.0902348 0)
(10.9976 0.0939473 0)
(10.9939 0.0980193 0)
(10.99 0.10247 0)
(10.9856 0.107318 0)
(10.9809 0.112587 0)
(10.9758 0.118297 0)
(10.9702 0.124473 0)
(10.9643 0.13114 0)
(10.9579 0.138325 0)
(10.951 0.146057 0)
(10.9436 0.154368 0)
(10.9357 0.163291 0)
(10.9273 0.17286 0)
(10.9182 0.183116 0)
(10.9085 0.194098 0)
(10.8982 0.205851 0)
(10.8872 0.218422 0)
(10.8754 0.231862 0)
(10.8629 0.246224 0)
(10.8495 0.261565 0)
(10.8353 0.277944 0)
(10.8201 0.295424 0)
(10.8039 0.314071 0)
(10.7867 0.333953 0)
(10.7685 0.355142 0)
(10.749 0.377712 0)
(10.7283 0.401741 0)
(10.7064 0.427308 0)
(10.683 0.454493 0)
(10.6582 0.483378 0)
(10.6318 0.514043 0)
(10.6038 0.546568 0)
(10.574 0.58103 0)
(10.5424 0.617507 0)
(10.5087 0.656077 0)
(10.473 0.696816 0)
(10.435 0.739802 0)
(10.3945 0.785106 0)
(10.3514 0.832793 0)
(10.3055 0.882915 0)
(10.2565 0.9355 0)
(10.2042 0.990552 0)
(10.1482 1.04804 0)
(10.0881 1.10788 0)
(10.0235 1.16996 0)
(9.95407 1.23412 0)
(9.87922 1.30016 0)
(9.79847 1.36785 0)
(9.71129 1.43691 0)
(9.61712 1.50706 0)
(9.51534 1.57796 0)
(9.40529 1.64925 0)
(9.28621 1.72053 0)
(9.15721 1.79135 0)
(9.01726 1.86116 0)
(8.86512 1.92936 0)
(8.69933 1.99522 0)
(8.51818 2.05792 0)
(8.31968 2.1165 0)
(10 0.0147539 0)
(10.0046 0.0438057 0)
(10.0132 0.0716932 0)
(10.0257 0.0977294 0)
(10.0419 0.121324 0)
(10.0611 0.142084 0)
(10.0826 0.159938 0)
(10.1056 0.175098 0)
(10.1294 0.187945 0)
(10.1535 0.198864 0)
(10.1779 0.208136 0)
(10.2026 0.215898 0)
(10.2275 0.222188 0)
(10.2527 0.227014 0)
(10.2781 0.230403 0)
(10.3034 0.232419 0)
(10.3286 0.233158 0)
(10.3535 0.232722 0)
(10.3779 0.231215 0)
(10.4018 0.228733 0)
(10.4251 0.22537 0)
(10.4477 0.22122 0)
(10.4694 0.216386 0)
(10.4904 0.210974 0)
(10.5104 0.205095 0)
(10.5296 0.198865 0)
(10.5478 0.192395 0)
(10.5651 0.185791 0)
(10.5814 0.179155 0)
(10.5969 0.172574 0)
(10.6115 0.166128 0)
(10.6253 0.159881 0)
(10.6384 0.153886 0)
(10.6508 0.148181 0)
(10.6627 0.142794 0)
(10.6739 0.137741 0)
(10.6847 0.133028 0)
(10.6951 0.128654 0)
(10.7051 0.12461 0)
(10.7147 0.120884 0)
(10.7241 0.117458 0)
(10.7332 0.114313 0)
(10.7421 0.111427 0)
(10.7508 0.108779 0)
(10.7594 0.106345 0)
(10.7677 0.104104 0)
(10.776 0.102035 0)
(10.7841 0.100116 0)
(10.7921 0.0983303 0)
(10.8 0.096659 0)
(10.8077 0.0950866 0)
(10.8154 0.0935991 0)
(10.8229 0.0921838 0)
(10.8303 0.0908299 0)
(10.8377 0.0895277 0)
(10.8449 0.0882691 0)
(10.8519 0.0870473 0)
(10.8589 0.0858565 0)
(10.8657 0.0846921 0)
(10.8724 0.0835502 0)
(10.879 0.082428 0)
(10.8854 0.0813234 0)
(10.8917 0.0802353 0)
(10.8979 0.0791632 0)
(10.9038 0.0781075 0)
(10.9097 0.0770689 0)
(10.9153 0.0760489 0)
(10.9208 0.0750493 0)
(10.9262 0.0740723 0)
(10.9313 0.0731207 0)
(10.9363 0.0721979 0)
(10.9411 0.0713077 0)
(10.9457 0.0704543 0)
(10.9501 0.0696423 0)
(10.9543 0.0688771 0)
(10.9583 0.0681644 0)
(10.9621 0.0675106 0)
(10.9656 0.0669226 0)
(10.969 0.0664075 0)
(10.9722 0.0659726 0)