/*--------------------------------*- C++ -*----------------------------------*\
| =========                 |                                                 |
| \\      /  F ield         | OpenFOAM: The Open Source CFD Toolbox           |
|  \\    /   O peration     | Version:  2306                                  |
|   \\  /    A nd           | Website:  www.openfoam.com                      |
|    \\/     M anipulation  |                                                 |
\*---------------------------------------------------------------------------*/
FoamFile
{
    version     2.0;
    format      ascii;
    arch        "LSB;label=32;scalar=64";
    class       volScalarField;
    location    "0.425";
    object      p;
}
// * * * * * * * * * * * * * * * * * * * * * * * * * * * * * * * * * * * * * //

dimensions      [0 2 -2 0 0 0 0];

internalField   nonuniform List<scalar> 
4400
(
707.53
706.515
705.607
704.935
704.486
704.179
703.935
703.706
703.472
703.232
702.986
702.738
702.491
702.246
702.001
701.758
701.515
701.271
701.028
700.783
700.539
700.295
700.051
699.807
699.565
699.325
699.086
698.85
698.617
698.388
698.162
697.942
697.726
697.517
697.314
697.119
696.931
696.752
696.583
696.424
696.275
696.138
696.013
695.9
695.8
695.713
695.64
695.58
695.533
695.499
695.478
695.467
695.465
695.469
695.478
695.485
695.487
695.478
695.451
695.399
695.315
695.194
695.037
694.856
694.702
694.62
694.683
694.969
695.505
696.257
697.128
697.823
698.084
697.842
697.709
697.559
697.859
697.957
697.754
697.838
706.068
705.725
705.293
704.852
704.46
704.136
703.868
703.632
703.409
703.184
702.953
702.716
702.475
702.232
701.989
701.746
701.504
701.261
701.019
700.776
700.533
700.289
700.047
699.804
699.563
699.323
699.085
698.849
698.617
698.387
698.162
697.941
697.725
697.516
697.312
697.116
696.928
696.748
696.577
696.415
696.264
696.125
695.996
695.88
695.776
695.686
695.608
695.545
695.493
695.455
695.428
695.412
695.406
695.405
695.409
695.413
695.412
695.4
695.372
695.32
695.236
695.119
694.966
694.794
694.638
694.565
694.651
694.991
695.63
696.566
697.672
698.587
698.596
697.754
697.292
696.995
697.09
697.557
697.684
697.884
705.522
705.357
705.099
704.781
704.447
704.133
703.852
703.602
703.373
703.151
702.928
702.699
702.464
702.224
701.982
701.74
701.497
701.255
701.013
700.771
700.529
700.286
700.044
699.802
699.562
699.322
699.084
698.849
698.616
698.386
698.16
697.939
697.722
697.51
697.305
697.106
696.915
696.731
696.555
696.389
696.232
696.085
695.947
695.822
695.706
695.603
695.511
695.431
695.362
695.303
695.256
695.216
695.185
695.159
695.136
695.112
695.085
695.048
694.999
694.933
694.847
694.744
694.627
694.518
694.45
694.487
694.675
695.057
695.631
696.371
697.143
697.697
697.866
697.683
697.683
697.76
698.069
698.702
698.024
697.113
705.107
705.007
704.833
704.6
704.334
704.062
703.8
703.554
703.324
703.103
702.884
702.662
702.434
702.201
701.964
701.724
701.483
701.242
701.001
700.76
700.519
700.278
700.036
699.795
699.555
699.316
699.078
698.843
698.609
698.379
698.152
697.929
697.71
697.496
697.288
697.085
696.89
696.7
696.519
696.344
696.179
696.021
695.874
695.735
695.605
695.486
695.375
695.276
695.184
695.103
695.027
694.961
694.898
694.839
694.782
694.723
694.662
694.591
694.516
694.425
694.331
694.229
694.134
694.063
694.045
694.111
694.288
694.587
695.003
695.512
696.049
696.516
696.858
697.057
697.159
697.193
697.159
697.095
696.831
697.057
704.807
704.738
704.613
704.439
704.227
703.995
703.756
703.522
703.295
703.074
702.856
702.636
702.412
702.183
701.95
701.713
701.475
701.235
700.995
700.753
700.513
700.271
700.03
699.789
699.549
699.31
699.072
698.835
698.601
698.369
698.141
697.915
697.694
697.477
697.265
697.058
696.857
696.661
696.473
696.29
696.117
695.948
695.788
695.637
695.492
695.357
695.227
695.107
694.992
694.886
694.782
694.687
694.591
694.5
694.405
694.312
694.211
694.108
693.997
693.88
693.764
693.645
693.548
693.466
693.44
693.461
693.568
693.746
694.011
694.343
694.714
695.095
695.419
695.68
695.823
695.935
696.024
696.258
696.633
697.129
704.589
704.537
704.44
704.301
704.127
703.926
703.71
703.49
703.268
703.049
702.831
702.612
702.39
702.164
701.934
701.7
701.464
701.225
700.986
700.745
700.504
700.263
700.022
699.781
699.54
699.3
699.061
698.824
698.588
698.355
698.124
697.897
697.672
697.452
697.235
697.024
696.817
696.615
696.419
696.228
696.045
695.865
695.695
695.528
695.37
695.216
695.071
694.928
694.792
694.66
694.53
694.406
694.278
694.154
694.025
693.895
693.758
693.619
693.472
693.323
693.174
693.029
692.896
692.782
692.701
692.655
692.667
692.726
692.855
693.026
693.248
693.481
693.711
693.91
694.079
694.255
694.49
694.854
695.372
695.958
704.43
704.387
704.306
704.189
704.039
703.862
703.666
703.457
703.243
703.027
702.81
702.592
702.371
702.147
701.919
701.687
701.453
701.216
700.977
700.736
700.495
700.254
700.012
699.77
699.529
699.288
699.048
698.81
698.572
698.337
698.103
697.874
697.645
697.421
697.2
696.984
696.771
696.563
696.359
696.159
695.967
695.776
695.595
695.413
695.242
695.07
694.907
694.743
694.587
694.43
694.275
694.121
693.965
693.807
693.647
693.481
693.308
693.135
692.946
692.766
692.572
692.391
692.204
692.043
691.885
691.767
691.67
691.618
691.604
691.629
691.691
691.769
691.873
691.968
692.106
692.251
692.527
692.86
693.41
694.07
704.318
704.281
704.209
704.105
703.971
703.81
703.628
703.43
703.223
703.01
702.794
702.576
702.356
702.133
701.906
701.676
701.443
701.207
700.968
700.727
700.486
700.244
700.002
699.759
699.517
699.275
699.034
698.793
698.554
698.316
698.08
697.846
697.615
697.386
697.162
696.938
696.72
696.505
696.293
696.086
695.882
695.682
695.488
695.294
695.107
694.92
694.739
694.555
694.38
694.197
694.02
693.838
693.652
693.466
693.27
693.073
692.863
692.653
692.426
692.204
691.966
691.734
691.492
691.263
691.031
690.821
690.621
690.449
690.293
690.171
690.068
689.99
689.94
689.911
689.929
690.004
690.17
690.458
690.921
691.578
704.246
704.212
704.145
704.05
703.924
703.773
703.6
703.41
703.208
702.997
702.783
702.565
702.345
702.122
701.895
701.667
701.434
701.198
700.959
700.718
700.477
700.234
699.99
699.747
699.503
699.26
699.017
698.774
698.533
698.292
698.053
697.816
697.581
697.347
697.118
696.888
696.665
696.442
696.223
696.007
695.794
695.583
695.377
695.171
694.968
694.769
694.566
694.369
694.168
693.967
693.763
693.558
693.342
693.128
692.902
692.668
692.427
692.175
691.912
691.64
691.358
691.064
690.768
690.459
690.152
689.841
689.538
689.23
688.946
688.659
688.392
688.147
687.913
687.732
687.575
687.513
687.511
687.683
687.971
688.541
704.21
704.178
704.114
704.022
703.9
703.754
703.585
703.398
703.199
702.99
702.776
702.558
702.338
702.114
701.888
701.66
701.427
701.19
700.952
700.709
700.468
700.223
699.979
699.734
699.488
699.243
698.998
698.753
698.509
698.266
698.023
697.783
697.543
697.305
697.071
696.835
696.606
696.375
696.149
695.924
695.701
695.481
695.262
695.046
694.826
694.615
694.392
694.182
693.956
693.738
693.509
693.28
693.038
692.797
692.538
692.273
691.998
691.702
691.403
691.081
690.749
690.396
690.035
689.648
689.258
688.846
688.426
687.996
687.556
687.111
686.671
686.225
685.807
685.41
685.052
684.77
684.571
684.51
684.628
684.933
704.208
704.177
704.114
704.021
703.899
703.752
703.583
703.396
703.197
702.988
702.774
702.555
702.334
702.11
701.884
701.655
701.421
701.184
700.944
700.701
700.459
700.213
699.967
699.72
699.472
699.226
698.978
698.73
698.484
698.237
697.992
697.746
697.503
697.26
697.02
696.779
696.542
696.306
696.071
695.84
695.606
695.376
695.146
694.915
694.686
694.457
694.22
693.993
693.748
693.51
693.261
693.005
692.742
692.469
692.183
691.887
691.576
691.242
690.903
690.53
690.148
689.736
689.303
688.845
688.359
687.85
687.309
686.745
686.152
685.537
684.897
684.252
683.597
682.95
682.356
681.772
681.345
680.963
680.824
680.865
704.242
704.209
704.144
704.048
703.92
703.769
703.594
703.405
703.202
702.991
702.777
702.556
702.335
702.11
701.883
701.653
701.417
701.179
700.937
700.693
700.449
700.201
699.955
699.705
699.456
699.206
698.956
698.706
698.457
698.206
697.957
697.708
697.459
697.213
696.967
696.721
696.477
696.234
695.991
695.752
695.507
695.27
695.028
694.785
694.545
694.3
694.049
693.807
693.541
693.288
693.016
692.738
692.453
692.153
691.837
691.512
691.164
690.796
690.413
689.996
689.558
689.09
688.588
688.051
687.478
686.862
686.201
685.498
684.746
683.94
683.11
682.2
681.315
680.369
679.442
678.59
677.733
677.087
676.534
676.243
704.311
704.276
704.206
704.102
703.965
703.802
703.619
703.422
703.214
703
702.783
702.561
702.34
702.113
701.886
701.653
701.415
701.175
700.931
700.686
700.44
700.19
699.942
699.69
699.44
699.187
698.934
698.681
698.427
698.175
697.92
697.668
697.414
697.162
696.912
696.658
696.411
696.159
695.909
695.663
695.406
695.164
694.908
694.656
694.404
694.143
693.884
693.621
693.341
693.071
692.777
692.48
692.173
691.844
691.506
691.152
690.763
690.371
689.939
689.476
688.998
688.458
687.9
687.281
686.625
685.89
685.132
684.263
683.354
682.369
681.277
680.166
678.919
677.688
676.383
675.086
673.879
672.709
671.752
671.019
704.421
704.38
704.302
704.184
704.031
703.852
703.654
703.447
703.232
703.014
702.794
702.571
702.349
702.121
701.892
701.655
701.415
701.172
700.926
700.68
700.431
700.18
699.929
699.675
699.423
699.166
698.912
698.654
698.398
698.141
697.881
697.627
697.366
697.112
696.853
696.595
696.342
696.081
695.825
695.571
695.305
695.056
694.787
694.526
694.266
693.985
693.723
693.435
693.147
692.861
692.543
692.232
691.904
691.544
691.196
690.795
690.392
689.956
689.488
688.983
688.458
687.857
687.243
686.55
685.796
684.991
684.067
683.108
681.988
680.826
679.496
678.072
676.557
674.879
673.167
671.389
669.602
667.895
666.341
665.016
704.578
704.528
704.434
704.293
704.116
703.913
703.697
703.477
703.253
703.032
702.809
702.587
702.363
702.133
701.9
701.66
701.416
701.171
700.922
700.675
700.422
700.171
699.916
699.66
699.405
699.145
698.889
698.625
698.368
698.105
697.843
697.585
697.316
697.061
696.792
696.531
696.272
696.001
695.744
695.476
695.206
694.947
694.666
694.402
694.124
693.837
693.561
693.257
692.96
692.654
692.32
691.995
691.644
691.263
690.898
690.462
690.037
689.573
689.052
688.535
687.935
687.31
686.611
685.869
685.024
684.116
683.118
681.96
680.75
679.327
677.776
676.069
674.143
672.073
669.823
667.436
664.99
662.519
660.155
658.092
704.795
704.729
704.606
704.429
704.214
703.98
703.742
703.508
703.277
703.054
702.83
702.607
702.379
702.147
701.908
701.664
701.418
701.169
700.92
700.67
700.415
700.161
699.903
699.647
699.387
699.124
698.866
698.596
698.339
698.067
697.806
697.539
697.267
697.007
696.732
696.466
696.2
695.922
695.661
695.381
695.108
694.84
694.546
694.282
693.982
693.694
693.406
693.079
692.788
692.45
692.106
691.782
691.376
691.018
690.604
690.15
689.715
689.205
688.657
688.113
687.461
686.787
686.063
685.215
684.328
683.332
682.204
680.963
679.574
677.972
676.18
674.153
671.882
669.264
666.406
663.353
659.966
656.505
653.142
649.821
705.095
704.996
704.823
704.587
704.32
704.046
703.784
703.538
703.304
703.079
702.855
702.629
702.397
702.159
701.916
701.668
701.418
701.167
700.916
700.663
700.407
700.151
699.889
699.632
699.367
699.103
698.839
698.566
698.308
698.027
697.767
697.491
697.217
696.952
696.666
696.403
696.121
695.844
695.572
695.286
695.007
694.729
694.428
694.158
693.844
693.553
693.25
692.915
692.618
692.256
691.911
691.568
691.135
690.782
690.329
689.864
689.421
688.859
688.311
687.723
687.022
686.341
685.525
684.674
683.684
682.62
681.41
680.044
678.554
676.75
674.756
672.477
669.767
666.623
663.154
659.074
654.613
649.86
644.889
640.001
705.511
705.344
705.087
704.767
704.432
704.116
703.834
703.583
703.35
703.124
702.897
702.663
702.424
702.178
701.929
701.678
701.425
701.172
700.919
700.663
700.405
700.144
699.88
699.62
699.349
699.086
698.814
698.541
698.276
697.992
697.728
697.445
697.17
696.895
696.609
696.335
696.052
695.764
695.491
695.193
694.913
694.621
694.321
694.038
693.717
693.428
693.099
692.774
692.462
692.069
691.763
691.344
690.949
690.56
690.088
689.625
689.151
688.566
688.017
687.359
686.684
685.93
685.071
684.226
683.142
681.994
680.761
679.264
677.685
675.677
673.611
671.026
667.958
664.426
660.187
655.11
649.084
642.473
634.952
627.915
706.055
705.712
705.281
704.838
704.445
704.118
703.848
703.612
703.384
703.155
702.92
702.677
702.432
702.182
701.932
701.679
701.426
701.172
700.917
700.658
700.398
700.137
699.868
699.607
699.331
699.066
698.79
698.514
698.245
697.957
697.689
697.401
697.123
696.841
696.553
696.27
695.986
695.69
695.413
695.107
694.825
694.52
694.223
693.924
693.599
693.311
692.952
692.648
692.311
691.91
691.623
691.164
690.803
690.385
689.898
689.443
688.915
688.365
687.772
687.096
686.447
685.608
684.708
683.925
682.667
681.596
680.253
678.765
676.858
675.039
672.502
670.082
666.364
662.862
657.827
651.938
644.055
634.911
622.275
610.713
707.515
706.503
705.597
704.921
704.469
704.161
703.914
703.684
703.447
703.203
702.951
702.698
702.446
702.194
701.941
701.689
701.433
701.179
700.921
700.662
700.398
700.135
699.865
699.601
699.325
699.056
698.78
698.502
698.227
697.944
697.665
697.382
697.095
696.815
696.524
696.238
695.951
695.656
695.37
695.075
694.777
694.486
694.177
693.874
693.567
693.246
692.925
692.598
692.246
691.903
691.526
691.141
690.738
690.305
689.873
689.339
688.881
688.264
687.688
687.008
686.371
685.398
684.761
683.656
682.586
681.492
680.113
678.469
676.857
674.617
672.44
669.498
666.201
662.069
657.138
650.013
642.347
629.108
613.298
587.547
698.114
698.424
698.833
699.136
699.26
699.225
699.043
698.767
698.421
697.996
697.528
697.055
696.218
695.209
694.553
694.554
695.403
697.016
698.621
700.329
698.318
698.496
698.797
699.155
699.35
699.322
699.121
698.819
698.513
698.2
697.496
696.606
695.551
694.427
693.673
693.528
694.271
695.903
697.359
698.956
696.985
697.803
698.87
699.433
699.579
699.535
699.369
699.021
698.535
697.887
696.868
695.543
694.207
692.994
691.976
691.431
691.906
693.643
695
696.346
698.115
699.034
698.694
698.931
700.119
700.108
699.915
699.364
698.722
697.719
696.256
694.435
692.782
691.569
690.637
690.131
690.281
691.907
693.335
694.534
697.728
697.978
698.884
701.159
701.456
700.5
700.711
699.841
699.081
697.582
695.505
693.257
691.493
690.504
689.795
689.427
689.689
691.303
692.366
693.368
696.731
697.723
699.247
700.75
701.762
703.01
702.214
700.336
699.199
697.176
694.92
692.63
690.744
689.916
689.581
689.757
689.969
691.586
691.84
692.82
695.033
696.242
697.769
699.291
700.839
701.797
701.897
701.315
699.478
696.779
694.573
692.435
690.65
689.538
688.725
688.721
689.221
690.724
691.973
693.42
692.508
693.693
695.106
696.665
698.19
699.363
700.015
699.705
698.489
696.476
693.871
691.805
690.345
690.126
690.375
691.522
692.07
692.656
693.366
695.212
689.291
690.339
691.596
693.013
694.457
695.762
696.597
696.742
696.109
694.632
692.819
690.868
688.381
686.479
685.607
685.389
685.952
687.751
690.294
693.885
685.518
686.324
687.381
688.658
689.974
691.27
692.327
692.964
693.024
692.531
691.396
690.519
691.122
691.951
692.846
694.762
697.062
699.166
701.03
704.024
681.144
681.744
682.576
683.64
684.954
686.231
687.512
688.711
689.807
691.42
694.062
697.441
698.1
688.201
677.793
677.651
687.167
694.453
698.752
702.802
676.241
676.494
677.166
678.092
679.286
680.846
682.497
684.124
685.832
687.191
687.55
686.441
683.152
679.585
681.83
687.237
693.443
699.385
705.912
711.226
670.582
670.584
670.938
671.856
673.114
674.712
676.825
679.383
681.806
683.975
685.28
685.676
686.361
688.707
692.622
696.314
699.787
702.361
705.239
705.914
664.091
663.641
663.79
664.55
666.133
668.208
670.304
672.607
675.413
678.149
680.852
683.718
687.54
690.617
692.066
694.316
699.622
705.451
708.855
710.513
656.416
655.442
655.312
655.967
657.617
660.66
664.778
668.589
671.866
674.652
677.165
680.371
685.11
689.802
694.633
701.446
707.485
710.333
710.568
710.843
647.224
645.485
644.964
646.016
647.862
650.248
654.01
659.258
664.817
669.959
674.625
679.672
685.317
690.909
696.642
702.689
707.217
710.186
711.696
712.039
635.649
632.747
631.759
633.412
637.965
643.291
647.868
652.088
656.558
662.365
668.891
676.004
682.851
689.142
695.219
701.062
706.563
710.566
712.239
712.634
621.242
616.486
615.127
616.176
619.469
626.611
636.48
645.537
652.546
658.099
664.124
671.339
678.895
686.044
692.544
698.811
705.087
709.64
711.629
712.532
599.426
594.998
596.858
601.414
606.376
612.113
620.848
631.861
642.529
651.297
658.883
666.557
674.449
681.881
688.561
695.144
701.474
706.21
709.301
710.723
558.912
557.675
562.815
571.201
583.763
599.622
613.36
623.433
633.38
643.557
652.699
660.838
668.865
676.527
683.618
690.322
696.649
701.851
705.295
706.478
519.147
535.181
530.704
530.253
546.004
573.211
597.461
613.573
624.201
634.429
644.786
654.249
662.843
670.456
677.503
684.363
690.927
696.212
699.447
700.786
533.125
525.012
512.253
502.252
515.536
548.121
579.499
601.465
614.406
624.831
635.759
646.654
656.245
664.17
671.116
677.637
683.822
689.001
692.376
694.147
517.121
513.194
497.199
483.106
499.001
528.981
563.583
590.674
606.616
617.306
627.913
638.821
648.425
656.451
663.621
670.138
675.985
681.196
684.886
686.691
519.43
510.688
489.628
480.081
492.532
521.368
551.757
578.117
597.176
610.036
621.285
631.937
640.729
648.317
655.47
662.063
667.896
672.951
676.369
677.886
525.824
517.154
498.812
493.986
508.66
529.613
547.198
570.667
588.794
602.251
614.127
624.574
633.001
640.354
647.258
653.608
659.105
663.73
666.907
668.489
537.774
529.529
523.363
521.408
527.046
540.318
560.621
570.07
584.985
597.941
608.42
617.285
624.92
632.132
638.955
644.944
650.025
654.332
657.414
659.065
537.255
534.66
531.566
534.113
536.471
547.4
560.335
578.307
587.958
596.531
604.124
610.708
616.909
623.458
629.997
635.759
640.588
644.728
647.702
649.132
537.777
536.762
536.674
541.469
545.533
551.267
566.153
582.53
587.187
594.562
599.127
603.866
609.083
614.769
620.666
626.149
630.831
634.688
637.419
638.742
536.894
536.315
537.22
543.492
549.481
554.516
563.889
573.983
592.058
588.6
590.093
594.46
599.678
605.292
611.005
616.26
620.706
624.363
626.899
628.085
536.192
536.05
536.21
542.382
546.665
553.175
560.924
568.346
582.652
578.255
578.128
581.986
587.873
594.273
600.458
605.88
610.26
613.675
616.129
617.311
535.319
535.896
534.5
539.743
541.845
544.761
551.937
556.156
561.683
565.021
562.997
566.417
573.782
581.603
588.696
594.488
599.065
602.713
605.291
606.403
534.085
534.027
532.902
532.234
531.313
531.596
535.136
537.056
540.938
545.018
543.462
547.884
557.696
567.547
575.903
582.499
587.577
591.525
594.325
595.497
534.41
530.317
525.964
518.764
513.077
510.011
510.263
511.514
516.095
519.789
520.409
527.118
540.135
552.553
562.606
570.196
576.016
580.547
583.619
584.874
532.293
522.821
511.931
497.942
486.684
481.146
478.864
479.874
487.06
492.257
495.304
505.187
521.833
537.142
549.198
558.097
564.854
570.002
573.455
574.872
519.672
507.199
489.864
470.59
455.435
447.394
443.179
445.586
456.377
463.846
469.611
483.649
504.099
522.138
535.967
546.222
554.123
560.14
564.056
565.737
496.893
483.367
462.467
440.479
423.389
413.61
409.181
414.1
427.294
435.977
444.753
463.705
487.937
508.379
523.897
535.459
544.483
551.301
555.687
557.75
469.504
456.081
434.037
411.475
393.967
383.621
380.26
388.068
402.125
411.381
423.426
446.911
474.214
496.627
513.662
526.473
536.517
543.969
548.813
551.204
443.841
431.02
409.426
387.327
370.06
360.086
358.469
368.556
382.296
392.227
408.212
434.923
463.559
487.367
505.729
519.576
530.36
538.352
543.655
546.307
424.308
412.305
391.905
370.845
353.954
344.995
345.341
356.515
369.17
380.106
399.491
428.077
456.928
481.374
500.455
514.866
526.023
534.436
540.162
543.103
412.947
402.055
383.216
363.678
347.636
339.367
340.757
352.531
364.374
376.878
397.882
426.64
455.246
479.377
497.955
512.28
523.659
532.294
538.311
541.538
410.503
400.934
384.186
366.321
351.5
344.702
346.61
355.672
367.34
382.136
404.09
432.047
458.951
481.088
498.436
512.268
523.346
531.9
538.006
541.395
416.681
408.365
393.691
378.313
365.379
359.954
361.631
368.363
378.734
394.293
416.957
443.003
466.758
486.04
501.631
514.497
524.98
533.144
539.147
542.548
430.229
423.079
410.707
397.683
387.04
382.571
383.707
388.629
397.687
412.75
434.323
457.333
477.342
493.603
507.269
518.734
528.223
535.817
541.466
544.699
449.327
443.307
433.138
422.126
413.19
409.336
409.876
413.514
421.668
435.492
454.301
473.474
489.553
502.958
514.516
524.345
532.721
539.526
544.553
547.447
471.921
466.879
458.561
449.305
441.533
437.951
437.828
440.562
447.971
459.934
475.164
490.076
502.288
513.17
522.677
530.876
537.944
543.764
548.14
550.697
496.341
492.153
485.19
477.178
470.47
466.934
466.048
467.917
474.436
484.256
495.632
506.313
515.353
523.886
531.131
537.694
543.656
548.489
552.233
554.221
521.097
517.491
511.632
504.724
498.758
495.135
493.549
494.337
499.299
506.814
514.777
521.806
528.447
534.54
539.71
544.765
549.334
553.23
556.311
557.897
545.071
541.795
536.572
530.586
525.062
521.335
519.12
518.815
521.719
526.767
531.742
536.155
540.895
544.733
548.07
551.672
554.966
557.944
560.359
561.523
567.28
564.157
559.345
553.816
548.749
544.883
541.972
540.518
541.504
544.386
546.59
549.128
552.224
554.126
556.197
558.424
560.435
562.327
564.186
564.993
587.581
584.232
579.336
573.952
569.101
565.058
561.594
559.312
558.64
559.636
559.734
560.806
562.295
562.921
563.821
564.558
565.151
566.21
567.473
567.986
605.633
601.988
596.623
590.965
586.012
581.747
577.624
574.806
573.247
572.741
571.459
571.42
571.508
571.214
570.947
570.278
569.573
569.75
570.119
570.309
621.457
617.386
611.524
605.231
599.941
595.505
591.175
587.539
585.61
584.16
582.068
580.777
579.873
578.674
577.379
575.419
573.732
572.513
572.058
572.28
634.978
630.754
624.505
617.621
611.778
606.776
602.693
598.709
596.16
594.064
591.416
589.123
587.615
585.33
583.17
580.35
578.019
575.38
573.835
574.082
645.826
641.899
635.623
628.601
622.537
616.981
612.236
608.301
605.228
602.558
599.491
596.801
594.387
591.493
588.661
585.375
582.196
578.793
576.27
576.213
653.435
650.445
644.693
637.801
631.674
626.274
620.837
616.22
612.723
609.684
606.382
603.503
600.251
597.043
593.748
590.292
586.356
582.511
579.326
579.219
657.517
656.071
651.663
645.146
638.638
633.028
627.833
622.539
618.579
615.239
612.102
609.073
605.429
602.189
598.495
594.777
590.549
586.903
583.789
583.68
658.482
658.417
655.672
650.257
643.854
637.521
632.313
627.245
623.09
619.831
616.979
613.992
610.158
606.847
603.369
599.286
595.231
592.125
588.904
588.473
657.246
657.646
655.865
651.686
646.25
640.272
634.749
630.244
626.299
623.419
620.886
617.965
614.278
611.15
607.889
603.966
599.944
596.528
594.666
594.38
654.85
654.738
653.216
649.798
645.418
640.733
635.733
631.821
628.321
625.763
623.486
620.898
617.818
614.923
612.042
608.1
604.67
601.751
599.863
599.874
652.471
651.256
649.898
646.818
643.272
639.764
636.038
632.831
630.013
627.759
625.755
623.464
620.973
618.371
615.705
612.327
609.331
607.073
605.636
605.938
651.637
648.886
647.482
644.508
641.498
638.759
636.171
633.586
631.566
629.686
628.08
625.965
623.523
621.363
619.09
616.114
613.362
611.742
610.389
610.07
652.67
648.268
645.709
642.655
639.765
637.618
635.86
633.929
632.596
631.132
629.912
628.174
625.777
623.913
621.938
619.662
617.611
615.963
615.557
616.087
653.166
647.554
642.77
639.697
637.222
635.578
634.681
633.674
633.042
632.203
631.257
630.147
628.041
626.438
624.628
622.358
620.941
619.767
619.249
619.494
649.517
643.861
637.677
635.214
633.827
632.695
632.681
632.657
632.936
632.97
632.498
631.922
630.062
628.431
626.4
624.426
622.817
621.707
621.535
622.878
643.419
638.775
633.07
631.443
630.878
629.983
630.559
631.451
632.58
633.501
633.503
633.229
631.731
629.917
627.931
626.507
625.227
625.147
625.277
625.759
638.916
634.749
631.576
630.514
629.544
628.29
629.322
630.833
632.672
634.231
634.609
634.741
633.144
631.437
629.737
628.227
626.842
625.506
625.134
626.483
634.216
631.349
632.556
631.202
629.806
628.734
629.379
631.081
633.041
634.825
635.687
635.808
634.537
633.057
631.26
629.424
628.09
627.839
628.378
629.802
630.202
629.107
633.63
632.332
631.356
629.829
629.491
630.341
631.668
632.954
633.915
634.707
634.583
633.814
632.379
630.24
628.67
627.236
626.772
626.967
628.445
628.664
633.218
632.376
631.391
628.657
626.561
625.613
625.256
625.597
626.669
628.313
630.094
631.105
630.766
628.825
626.838
626.311
626.711
627.342
626.119
626.053
630.697
629.2
626.419
621.946
617.919
614.682
612.499
611.761
612.997
615.932
619.419
622.572
624.906
625.994
626.79
626.396
625.904
624.951
621.497
621.434
624.057
621.154
615.627
609.294
603.456
598.103
594.399
593.259
594.441
598.028
603.21
608.751
614.389
619.216
620.715
620.019
619.726
621.748
618.993
616.701
615.593
609.129
600.307
592.206
584.508
577.389
572.555
570.944
572.571
576.784
582.587
590.203
598.091
605.645
611.78
617.108
622.161
623.473
618.347
613.061
605.378
593.598
581.87
571.867
562.056
553.095
547.411
545.432
546.797
551.345
558.207
567.244
578.186
590.221
601.701
609.579
611.655
612.657
613.064
605.165
591.034
575.178
560.764
548.584
536.446
525.809
518.791
516.21
517.439
521.692
529.651
540.699
554.202
568.815
582.084
592.224
600.34
606.152
598.397
588.479
571.489
553.614
537.311
522.864
508.543
496.369
488.348
484.443
484.57
489.022
497.57
510.156
525.656
542.252
559.967
577.29
588.568
592.432
575.952
565.61
547.84
529.257
511.856
495.81
479.873
466.41
457.505
452.804
451.895
455.413
463.79
477.671
495.42
515.111
534.666
550.764
561.193
565.764
548.5
538.25
521.287
502.932
485.061
468.185
451.575
437.8
428.212
422.62
420.935
423.512
431.393
445.266
462.817
482.615
502.599
521.726
536.085
545.215
518.509
508.662
493.055
475.432
457.936
440.919
424.006
410.431
401.027
394.734
392.053
393.593
400.18
412.713
430.511
449.88
470.605
491.565
506.737
511.395
487.537
478.535
464.342
447.676
430.974
414.351
397.863
384.451
374.738
368.042
364.75
365.589
371.026
381.91
398.753
418.088
437.367
454.869
469.078
478.971
457.064
449.106
436.284
420.857
404.999
388.531
372.751
359.959
349.657
342.091
338.464
338.746
342.64
352.095
367.171
385.308
404.525
423.934
438.411
441.282
428.378
421.452
409.798
395.601
380.774
364.646
349.11
336.285
325.481
317.51
313.424
312.954
316.332
324.069
337.738
355.091
371.779
387.481
398.734
405.877
402.442
396.419
385.834
372.679
358.296
342.696
327.908
314.577
302.896
294.669
290.656
289.743
291.949
298.91
310.676
324.784
339.627
354.097
365.877
369.891
379.915
374.529
364.965
352.9
338.864
323.226
308.688
295.199
283.224
274.937
270.474
269.102
270.558
276.048
286.602
298.235
310.09
322.571
332.17
336.843
361.159
356.26
347.386
336.055
322.564
307.509
292.655
278.406
266.69
258.867
254.397
252.449
253.542
258.15
265.444
274.921
283.114
289.995
296.103
298.296
346.369
341.825
333.598
322.601
309.213
294.677
280.073
265.779
254.481
246.825
241.909
239.912
240.959
244.638
250.166
254.934
257.992
261.704
262.987
263.692
335.692
331.297
323.414
312.752
299.884
285.599
270.825
256.864
246.459
238.877
233.953
232.027
232.705
234.85
238.656
240.377
238.488
233.106
228.028
223.158
328.918
324.784
316.866
306.295
293.925
280.483
265.663
252.088
242.329
234.78
230.369
229.064
229.759
231.671
232.958
229.892
221.073
206.637
187.23
177.48
325.997
322.102
314.038
303.899
291.785
278.797
264.107
250.916
242.548
234.62
230.883
230.326
230.91
232.515
232.919
227.574
211.416
184.358
148.709
118.626
326.667
322.529
314.969
305.209
294.054
281.275
266.876
255.147
246.29
238.735
236.274
236.926
237.849
239.328
237.861
229.664
209.103
170.914
104.759
40.5983
330.686
326.777
319.458
309.963
299.356
287.362
274.233
263.493
254.58
248.433
247.21
248.222
250.76
252.139
250.592
238.978
213.109
164.963
75.312
-61.3485
338.749
334.888
327.682
318.673
308.558
297.155
285.267
275.462
267.946
263.419
262.724
263.781
267.943
271.605
268.95
257.511
227.974
173.319
63.9266
-165.856
350.297
346.513
339.463
330.632
320.993
310.194
299.163
290.351
284.265
281.573
282.077
285.18
290.952
295.882
296.601
286.016
252.43
197.652
91.5371
-152.189
364.252
360.737
353.857
345.102
335.822
325.725
315.641
308.205
303.733
301.968
303.772
310.528
319.774
326.596
328.829
322.959
293.803
235.08
168.686
-41.0569
379.864
376.582
369.947
361.222
352.358
342.803
333.656
328.226
326.197
326.483
329.989
338.93
349.869
362.628
368.929
366.485
357.655
288.735
274.139
97.2511
396.001
392.786
386.587
377.9
369.454
360.145
351.601
347.726
347.121
347.979
354.27
367.369
382.161
398.489
415.73
410.503
432.343
348.873
338.44
222.513
411.914
408.147
402.14
394.107
385.442
376.083
368.995
366.671
367.033
371.451
379.613
394.352
413.984
432.351
461.326
446.35
499.742
407.646
357.343
331.241
426.519
421.317
413.935
405.784
397.544
389.032
382.808
378.847
373.844
375.734
393.128
418.379
442.29
462.387
502.336
483.898
525.168
469.653
416.685
420.293
438.391
432.933
424.364
414.74
406.158
399.111
395.367
392.004
382.978
378.379
404.207
442.292
467.439
482.227
523.202
519.217
522.213
550.16
509.913
483.391
441.835
435.935
428.563
419.689
412.929
409.22
409.069
407.011
400.864
405.202
428.164
455.879
474.728
505.224
536.889
562.383
552.287
634.667
575.208
522.935
451.49
442.597
431.916
422.684
417.291
415.089
415.498
415.387
415.218
423.189
443.446
464.011
484.431
531.074
557.294
620.561
587.283
670.884
602.899
542.054
-479.502
-385.525
-400.674
-395.594
-424.904
-443.954
-462.31
-468.93
-457.78
-430.514
-402.749
-371.153
-335.476
-304.502
-273.853
-249.228
-229.825
-214.268
-205.156
-200.837
-200.2
-199.923
-200.595
-200.728
-199.574
-197.035
-192.706
-185.699
-175.906
-163.317
-146.403
-124.964
-102.024
-76.4516
-46.8618
-18.7699
7.54728
33.0127
54.086
71.5061
84.5057
93.4709
98.9452
101.737
102.66
101.988
99.9991
97.7216
96.0647
95.3558
94.2334
92.2154
88.803
83.527
77.2172
70.7654
65.3063
62.3165
62.0105
63.0183
63.0892
60.3284
53.6526
43.6836
31.4092
18.6203
7.54835
-0.0763908
-4.68675
-6.64943
-6.48655
-5.10623
-2.60847
0.399834
3.13483
5.03428
6.22802
6.09069
4.90277
2.10764