/*--------------------------------*- C++ -*----------------------------------*\
| =========                 |                                                 |
| \\      /  F ield         | OpenFOAM: The Open Source CFD Toolbox           |
|  \\    /   O peration     | Version:  2306                                  |
|   \\  /    A nd           | Website:  www.openfoam.com                      |
|    \\/     M anipulation  |                                                 |
\*---------------------------------------------------------------------------*/
FoamFile
{
    version     2.0;
    format      ascii;
    arch        "LSB;label=32;scalar=64";
    class       surfaceScalarField;
    location    "0.425";
    object      phi;
}
// * * * * * * * * * * * * * * * * * * * * * * * * * * * * * * * * * * * * * //

dimensions      [0 3 -1 0 0 0 0];

oriented        oriented;

internalField   nonuniform List<scalar> 
8520
(
0.0099278
7.21959e-05
0.00978963
0.000138177
0.0096295
0.000160129
0.00946828
0.00016122
0.00930944
0.000158834
0.00914914
0.000160301
0.00898639
0.000162752
0.00882094
0.000165452
0.00865372
0.000167216
0.0084856
0.000168124
0.0083179
0.000167697
0.00815107
0.000166833
0.00798555
0.000165516
0.00782133
0.000164226
0.00765849
0.000162837
0.00749709
0.000161398
0.00733715
0.000159938
0.00717885
0.000158307
0.00702215
0.000156693
0.00686731
0.000154839
0.00671427
0.000153044
0.00656321
0.000151057
0.00641414
0.000149069
0.00626713
0.000147017
0.00612227
0.000144854
0.0059795
0.000142771
0.00583901
0.000140489
0.00570061
0.000138398
0.00556457
0.000136045
0.00543058
0.000133989
0.005299
0.000131583
0.00516939
0.000129604
0.00504205
0.000127343
0.00491655
0.000125501
0.00479308
0.000123472
0.00467119
0.00012189
0.00455103
0.000120161
0.004432
0.000119024
0.00431424
0.000117766
0.00419703
0.000117202
0.00408039
0.000116647
0.00396365
0.000116735
0.00384657
0.000117078
0.00372854
0.000118039
0.00360904
0.000119496
0.00348741
0.00012163
0.00336298
0.000124429
0.00323492
0.000128064
0.00310248
0.000132434
0.00296453
0.000137948
0.00282047
0.000144065
0.00266867
0.000151802
0.00250879
0.000159873
0.00233878
0.000170011
0.00215861
0.000180172
0.00196597
0.000192644
0.00176125
0.00020472
0.0015422
0.000219048
0.00130992
0.000232276
0.00106274
0.000247187
0.000803168
0.000259567
0.000531167
0.000272002
0.000254393
0.000276773
-1.57907e-05
0.000270184
-0.000261361
0.00024557
-0.000471881
0.00021052
-0.000621479
0.000149599
-0.000695346
7.38672e-05
-0.000671046
-2.43008e-05
-0.00054444
-0.000126606
-0.000308352
-0.000236088
-2.28617e-05
-0.00028549
0.000220444
-0.000243305
0.000314578
-9.4134e-05
-1.21492e-05
0.000326727
-0.000512255
0.000500106
-0.000390169
-0.000122086
-7.18428e-05
-0.000318326
-7.64122e-05
4.5693e-06
0.000143429
-0.000219841
0.0100357
3.65374e-05
0.0100799
9.3948e-05
0.0101108
0.000129234
0.0101273
0.000144718
0.0101357
0.000150398
0.0101431
0.000152888
0.0101493
0.000156549
0.0101532
0.000161585
0.0101537
0.000166755
0.0101502
0.000171592
0.010143
0.000174857
0.0101323
0.000177526
0.0101189
0.000179011
0.0101027
0.000180334
0.0100843
0.000181235
0.0100637
0.00018201
0.0100408
0.000182843
0.0100159
0.000183185
0.00998872
0.000183926
0.00995977
0.000183787
0.00992848
0.000184336
0.00989566
0.000183879
0.00986063
0.000184096
0.00982413
0.000183522
0.00978562
0.000183355
0.00974561
0.000182784
0.00970381
0.000182293
0.00966042
0.000181786
0.00961544
0.000181021
0.00956876
0.000180667
0.00952062
0.000179726
0.00947065
0.000179576
0.00941927
0.000178719
0.00936596
0.000178812
0.00931118
0.000178258
0.00925428
0.000178786
0.00919581
0.000178628
0.00913494
0.000179901
0.00907231
0.000180394
0.00900688
0.000182628
0.00893918
0.000184351
0.00886837
0.000187546
0.00879463
0.000190818
0.00871731
0.000195358
0.00863614
0.000200666
0.00855076
0.000207007
0.00846033
0.000214866
0.0083649
0.000223492
0.00826284
0.000234487
0.00815473
0.000246063
0.00803819
0.000260602
0.00791405
0.000275944
0.00777949
0.000294434
0.00763531
0.000314186
0.00747842
0.000337063
0.00730956
0.000361506
0.00712542
0.000388861
0.00692685
0.000417623
0.00671032
0.000448799
0.00647762
0.000479888
0.00622486
0.000512326
0.00595615
0.000540712
0.00566558
0.000567344
0.00535464
0.000581131
0.00502146
0.000578747
0.00466167
0.000570308
0.00425704
0.000554233
0.00380226
0.000528645
0.00327152
0.000506435
0.00264531
0.000499608
0.00187347
0.000535753
0.000995562
0.000592416
0.000142458
0.000609798
-0.000422015
0.000470339
-0.00054932
0.000454032
-0.000379117
0.000329903
-0.000439636
-6.15677e-05
-0.000575151
-0.00018281
-0.000557305
-1.3277e-05
7.56398e-05
-0.000489516
0.0100141
2.24043e-05
0.0100441
6.39628e-05
0.0100777
9.56215e-05
0.0101074
0.000115017
0.0101313
0.000126544
0.0101523
0.00013188
0.010173
0.000135865
0.010195
0.000139526
0.0102179
0.000143879
0.0102408
0.000148727
0.0102631
0.000152494
0.0102842
0.000156504
0.0103045
0.000158652
0.0103235
0.000161314
0.0103423
0.000162436
0.01036
0.000164322
0.0103776
0.000165318
0.0103941
0.000166671
0.0104101
0.000167867
0.0104253
0.000168627
0.0104396
0.000170036
0.0104532
0.00017029
0.0104656
0.000171708
0.0104774
0.000171707
0.0104878
0.000172976
0.0104976
0.000172968
0.0105058
0.000174016
0.0105134
0.000174193
0.0105195
0.000174986
0.0105246
0.00017553
0.0105282
0.000176149
0.0105307
0.000177097
0.0105315
0.000177868
0.0105311
0.000179181
0.010529
0.000180417
0.0105255
0.000182301
0.01052
0.00018408
0.0105129
0.000186999
0.0105038
0.000189522
0.0104927
0.000193701
0.0104795
0.000197594
0.0104641
0.000202946
0.0104459
0.000208981
0.0104256
0.000215672
0.0104017
0.000224554
0.0103757
0.000233056
0.0103452
0.000245381
0.0103122
0.000256457
0.010274
0.000272656
0.0102326
0.000287504
0.0101854
0.000307763
0.0101337
0.000327659
0.0100757
0.000352457
0.0100116
0.000378247
0.00994045
0.000408231
0.0098614
0.000440562
0.00977454
0.000475713
0.00967737
0.000514801
0.00957182
0.000554342
0.00945321
0.000598504
0.00932512
0.000640408
0.00918061
0.000685223
0.00902353
0.000724427
0.00884276
0.000761898
0.00863141
0.000790106
0.00838418
0.000817529
0.00809313
0.000845291
0.00775341
0.00086836
0.00735504
0.000904804
0.00690885
0.000945805
0.00642407
0.00102053
0.00592616
0.00109033
0.00536178
0.00117417
0.00462745
0.00120467
0.00387257
0.00120891
0.00302246
0.00118001
0.00189891
0.00106199
0.000683468
0.00103263
-9.48669e-05
0.000765058
0.000372733
-0.00039196
0.010007
1.53807e-05
0.0100268
4.42034e-05
0.0100519
7.04865e-05
0.010077
8.99097e-05
0.0101003
0.000103266
0.0101224
0.000109828
0.0101431
0.000115161
0.0101643
0.000118274
0.0101863
0.00012191
0.0102096
0.000125442
0.0102331
0.000128931
0.0102569
0.000132718
0.0102805
0.000135068
0.0103037
0.000138069
0.010327
0.00013916
0.0103499
0.000141478
0.0103731
0.000142095
0.0103959
0.000143899
0.010419
0.000144689
0.0104417
0.000145925
0.0104646
0.000147208
0.0104871
0.000147785
0.0105093
0.000149494
0.0105314
0.00014956
0.0105528
0.000151559
0.0105744
0.000151366
0.0105949
0.000153541
0.0106158
0.000153358
0.0106352
0.00015559
0.0106549
0.000155762
0.0106732
0.000157922
0.0106915
0.000158758
0.0107085
0.000160908
0.010725
0.000162606
0.0107406
0.000164882
0.0107551
0.000167783
0.010769
0.00017018
0.0107811
0.000174848
0.0107932
0.0001775
0.0108027
0.000184165
0.0108126
0.000187681
0.0108192
0.000196306
0.0108267
0.000201492
0.0108301
0.00021229
0.0108348
0.000219908
0.0108348
0.000233027
0.0108358
0.000244408
0.0108326
0.000259606
0.010829
0.000276277
0.0108225
0.000294033
0.0108139
0.000316316
0.0108031
0.000338488
0.0107895
0.000366036
0.0107735
0.000394244
0.0107543
0.00042741
0.0107324
0.00046246
0.0107071
0.00050106
0.0106778
0.000544091
0.0106455
0.000586653
0.0106067
0.000637276
0.010564
0.00068312
0.0105119
0.000737302
0.0104503
0.000786058
0.0103722
0.000840019
0.0102718
0.000890512
0.0101445
0.000944759
0.00999111
0.000998705
0.00980083
0.00105864
0.00957814
0.0011275
0.00932003
0.00120392
0.00903999
0.00130057
0.0087261
0.00140421
0.00837096
0.00152931
0.00792917
0.00164647
0.00742132
0.00171676
0.00682409
0.00177725
0.006147
0.00173908
0.00545771
0.00172192
0.00452485
0.00169791
0.00153007
0.00336751
0.0100045
1.09093e-05
0.0100166
3.20774e-05
0.0100351
5.19813e-05
0.0100563
6.86841e-05
0.0100781
8.15281e-05
0.010099
8.88756e-05
0.0101192
9.49825e-05
0.0101398
9.76254e-05
0.0101605
0.000101234
0.0101828
0.000103211
0.0102049
0.000106817
0.0102283
0.000109272
0.0102512
0.000112165
0.0102749
0.000114365
0.0102979
0.000116155
0.0103214
0.000117965
0.0103446
0.000118923
0.0103681
0.000120443
0.0103915
0.000121213
0.010415
0.000122505
0.0104386
0.00012358
0.0104619
0.000124453
0.0104855
0.000125959
0.0105086
0.000126426
0.0105318
0.000128312
0.0105546
0.000128572
0.0105775
0.000130717
0.0105998
0.000131041
0.010622
0.000133353
0.0106437
0.000134072
0.0106652
0.000136429
0.0106861
0.000137899
0.0107067
0.000140292
0.0107265
0.000142802
0.0107461
0.000145265
0.0107646
0.000149302
0.0107832
0.000151575
0.0107999
0.000158095
0.0108176
0.000159794
0.0108324
0.00016943
0.010849
0.000171087
0.0108618
0.00018346
0.0108767
0.0001866
0.0108879
0.000201101
0.0109008
0.000206987
0.0109102
0.000223676
0.0109212
0.000233386
0.0109287
0.000252103
0.0109373
0.000267637
0.0109438
0.000287535
0.0109492
0.000310907
0.0109554
0.000332313
0.0109576
0.000363838
0.0109634
0.000388427
0.0109627
0.000428127
0.0109687
0.000456507
0.0109645
0.000505171
0.0109709
0.00053775
0.0109636
0.000593935
0.0109673
0.000633547
0.0109572
0.000693221
0.010952
0.000742495
0.0109338
0.000804313
0.0109114
0.000862374
0.0108737
0.000928253
0.0108237
0.00099471
0.0107564
0.00106605
0.0106656
0.0011494
0.0105621
0.00123104
0.0104259
0.0013401
0.010282
0.0014445
0.0101017
0.00158445
0.00991149
0.00171957
0.00968829
0.00186967
0.00941139
0.00199365
0.00907998
0.00210866
0.00863631
0.00218275
0.00809701
0.00226121
0.00744179
0.00235314
0.00231001
0.00666185
0.0100031
7.80111e-06
0.0100118
2.34147e-05
0.0100256
3.81204e-05
0.0100431
5.12615e-05
0.0100625
6.20601e-05
0.0100824
6.90303e-05
0.0101024
7.49827e-05
0.0101225
7.75273e-05
0.0101426
8.10827e-05
0.0101637
8.2081e-05
0.0101852
8.53899e-05
0.0102078
8.66297e-05
0.0102302
8.97644e-05
0.0102535
9.10592e-05
0.0102763
9.33497e-05
0.0102997
9.46184e-05
0.0103228
9.58042e-05
0.010346
9.72147e-05
0.0103695
9.76857e-05
0.0103926
9.94424e-05
0.0104165
9.96977e-05
0.0104394
0.000101575
0.0104634
0.000101963
0.010486
0.000103749
0.0105098
0.000104517
0.0105323
0.000106072
0.0105556
0.000107407
0.010578
0.000108712
0.0106006
0.000110758
0.0106226
0.000111999
0.0106444
0.000114683
0.010666
0.000116255
0.0106868
0.000119525
0.0107079
0.000121686
0.0107275
0.000125722
0.0107481
0.000128708
0.0107661
0.000133483
0.0107861
0.000138181
0.0108028
0.00014301
0.0108216
0.000150709
0.0108374
0.000155231
0.0108545
0.000166412
0.0108695
0.000171564
0.0108849
0.000185751
0.0108989
0.000192903
0.0109127
0.00020996
0.0109259
0.000220105
0.0109379
0.000240161
0.0109506
0.000254868
0.0109612
0.00027703
0.0109731
0.000298999
0.0109833
0.000322085
0.0109939
0.000353183
0.0110044
0.000377927
0.0110149
0.000417643
0.011025
0.000446456
0.0110366
0.000493592
0.0110462
0.000528111
0.0110577
0.000582445
0.0110676
0.000623656
0.0110762
0.000684621
0.0110831
0.000735546
0.0110873
0.000800153
0.0110841
0.000865591
0.0110803
0.000932004
0.0110612
0.00101386
0.0110391
0.00108815
0.0109998
0.0011887
0.010954
0.00127681
0.0108873
0.00140676
0.0108205
0.00151136
0.0107276
0.00167736
0.010642
0.00180508
0.0105241
0.00198759
0.0103841
0.00213365
0.01019
0.00230276
0.00991896
0.00245381
0.00958832
0.00259185
0.00921467
0.0027268
0.0027971
0.00872758
0.0100025
5.33205e-06
0.0100092
1.66828e-05
0.0100205
2.6832e-05
0.010035
3.67432e-05
0.0100525
4.45483e-05
0.0100707
5.08166e-05
0.0100904
5.52822e-05
0.0101098
5.81585e-05
0.0101301
6.07353e-05
0.0101504
6.18412e-05
0.0101717
6.41081e-05
0.0101934
6.49281e-05
0.0102156
6.75099e-05
0.0102383
6.84118e-05
0.010261
7.05931e-05
0.0102841
7.1532e-05
0.0103072
7.27268e-05
0.0103304
7.4039e-05
0.0103537
7.43225e-05
0.0103768
7.63441e-05
0.0104005
7.60247e-05
0.0104234
7.86345e-05
0.0104473
7.81137e-05
0.01047
8.10341e-05
0.0104938
8.07463e-05
0.0105163
8.35411e-05
0.0105397
8.40537e-05
0.0105621
8.62562e-05
0.0105847
8.81697e-05
0.0106071
8.9564e-05
0.0106288
9.307e-05
0.0106511
9.39618e-05
0.0106716
9.8978e-05
0.0106936
9.96414e-05
0.0107129
0.000106446
0.0107348
0.000106852
0.0107525
0.000115737
0.0107741
0.000116612
0.0107905
0.000126592
0.0108112
0.000130051
0.0108269
0.000139482
0.0108459
0.000147411
0.0108615
0.000156007
0.0108786
0.000168657
0.0108941
0.0001774
0.0109092
0.000194803
0.010925
0.000204379
0.010938
0.000227115
0.0109546
0.000238283
0.0109653
0.000266328
0.0109835
0.000280813
0.0109919
0.000313644
0.011012
0.000333137
0.0110193
0.000370632
0.0110403
0.000396582
0.0110484
0.000438386
0.0110694
0.000472529
0.0110791
0.000518504
0.0110997
0.000561843
0.0111103
0.000612972
0.0111282
0.000666755
0.0111409
0.000722902
0.0111509
0.000790061
0.011165
0.000851501
0.0111645
0.000932545
0.0111724
0.00100592
0.0111598
0.00110074
0.0111575
0.00119106
0.0111256
0.00130872
0.0111148
0.00141758
0.0110635
0.00156261
0.0110403
0.00170059
0.0109783
0.00186706
0.0109297
0.00203619
0.0108405
0.00222283
0.010732
0.00241126
0.010586
0.00259985
0.0103845
0.00279338
0.0101527
0.00295858
0.003151
0.00979878
0.0100023
3.04069e-06
0.0100077
1.12298e-05
0.0100177
1.68318e-05
0.0100302
2.42673e-05
0.0100463
2.84273e-05
0.0100631
3.40812e-05
0.0100824
3.59993e-05
0.010101
3.95015e-05
0.0101216
4.01819e-05
0.0101413
4.21167e-05
0.0101626
4.28038e-05
0.0101836
4.39258e-05
0.0102057
4.53938e-05
0.0102279
4.62433e-05
0.0102505
4.79509e-05
0.0102735
4.8575e-05
0.0102964
4.98194e-05
0.0103198
5.06418e-05
0.0103427
5.14105e-05
0.0103664
5.26797e-05
0.0103893
5.31173e-05
0.0104131
5.48479e-05
0.010436
5.51835e-05
0.0104596
5.739e-05
0.0104826
5.77512e-05
0.0105059
6.02574e-05
0.0105289
6.11018e-05
0.0105518
6.3348e-05
0.0105744
6.55879e-05
0.010597
6.68902e-05
0.0106189
7.11713e-05
0.0106413
7.15659e-05
0.0106625
7.77791e-05
0.0106844
7.78137e-05
0.0107049
8.58605e-05
0.0107261
8.57121e-05
0.0107458
9.60304e-05
0.0107665
9.58847e-05
0.0107849
0.000108169
0.0108053
0.000109635
0.0108226
0.000122191
0.0108422
0.000127833
0.0108591
0.000139125
0.0108771
0.000150629
0.0108944
0.000160107
0.0109102
0.000179002
0.0109289
0.000185666
0.0109418
0.00021428
0.0109628
0.000217233
0.0109729
0.000256283
0.0109959
0.000257803
0.0110048
0.00030468
0.0110287
0.000309299
0.0110382
0.000361141
0.0110625
0.000372294
0.0110734
0.000427485
0.0110974
0.000448481
0.0111113
0.000504627
0.0111331
0.000540074
0.0111508
0.000595234
0.0111698
0.000647752
0.011189
0.000703733
0.0112058
0.000773247
0.0112241
0.000833141
0.0112345
0.000922224
0.0112514
0.000988947
0.0112525
0.00109971
0.0112614
0.00118214
0.0112554
0.00131473
0.0112534
0.00141952
0.0112355
0.00158056
0.0112254
0.00171066
0.0111937
0.00189878
0.0111632
0.0020667
0.0111114
0.00227457
0.0110466
0.00247613
0.010949
0.0026974
0.0108281
0.00291427
0.010644
0.00314268
0.00337399
0.010421
0.0100021
8.93858e-07
0.0100071
6.32618e-06
0.0100162
7.71508e-06
0.0100277
1.2777e-05
0.0100426
1.35329e-05
0.0100587
1.79077e-05
0.0100771
1.7583e-05
0.0100958
2.08461e-05
0.0101159
2.00838e-05
0.0101359
2.21336e-05
0.0101568
2.19319e-05
0.0101779
2.27854e-05
0.0101994
2.39015e-05
0.0102217
2.3879e-05
0.0102438
2.58806e-05
0.0102671
2.52617e-05
0.0102896
2.73712e-05
0.0103133
2.68876e-05
0.0103359
2.88076e-05
0.0103599
2.86993e-05
0.0103825
3.04995e-05
0.0104068
3.06318e-05
0.0104292
3.27215e-05
0.0104536
3.30054e-05
0.0104759
3.54496e-05
0.0105002
3.5986e-05
0.0105224
3.88347e-05
0.0105462
3.9541e-05
0.0105685
4.33095e-05
0.0105917
4.36998e-05
0.0106138
4.90503e-05
0.0106364
4.89619e-05
0.0106582
5.60346e-05
0.0106802
5.57886e-05
0.0107015
6.46111e-05
0.0107228
6.4358e-05
0.0107436
7.52596e-05
0.0107641
7.53536e-05
0.0107845
8.7771e-05
0.010804
9.01404e-05
0.0108242
0.000101952
0.0108425
0.000109557
0.0108627
0.000118919
0.01088
0.00013336
0.0108998
0.000140262
0.0109169
0.000161976
0.0109359
0.000166644
0.0109533
0.000196879
0.0109718
0.000198717
0.0109893
0.000238795
0.0110085
0.000238614
0.0110258
0.000287403
0.0110461
0.000289005
0.0110642
0.000342994
0.0110849
0.000351593
0.011105
0.000407353
0.0111264
0.000427114
0.0111476
0.000483443
0.011171
0.000516686
0.0111926
0.000573592
0.0112166
0.000623725
0.0112405
0.0006799
0.0112628
0.000750926
0.0112864
0.000809584
0.0113088
0.000899811
0.011327
0.000970684
0.0113482
0.00107858
0.01136
0.00117027
0.0113782
0.00129657
0.0113789
0.00141877
0.0113927
0.00156684
0.0113828
0.00172048
0.011378
0.0019036
0.0113601
0.00208459
0.0113271
0.00230758
0.0112883
0.00251498
0.0112133
0.00277241
0.011131
0.00299657
0.0109766
0.00329706
0.00351935
0.0108312
0.0100019
-1.02873e-06
0.0100069
1.39743e-06
0.0100153
-7.26894e-07
0.0100266
1.43566e-06
0.0100406
-4.51686e-07
0.0100569
1.67553e-06
0.0100745
-8.09003e-08
0.0100935
1.89618e-06
0.0101131
4.57314e-07
0.0101334
1.79661e-06
0.010154
1.36244e-06
0.0101753
1.4489e-06
0.0101965
2.77068e-06
0.010219
1.34283e-06
0.0102408
4.12086e-06
0.0102643
1.72774e-06
0.0102865
5.11906e-06
0.0103104
3.01608e-06
0.0103331
6.09808e-06
0.0103569
4.88302e-06
0.0103801
7.37504e-06
0.0104038
6.92348e-06
0.0104271
9.43372e-06
0.0104508
9.26368e-06
0.010474
1.2275e-05
0.0104978
1.21684e-05
0.0105207
1.59224e-05
0.0105445
1.57883e-05
0.0105671
2.07227e-05
0.0105906
2.0139e-05
0.0106128
2.68458e-05
0.010636
2.57773e-05
0.010658
3.40633e-05
0.0106804
3.33794e-05
0.0107024
4.25765e-05
0.0107237
4.30519e-05
0.0107459
5.31308e-05
0.0107662
5.5041e-05
0.0107881
6.58153e-05
0.0108077
7.05527e-05
0.0108293
8.03865e-05
0.0108484
9.04161e-05
0.0108693
9.80761e-05
0.0108888
0.000113849
0.0109081
0.000120973
0.010929
0.00014108
0.0109464
0.000149167
0.0109689
0.000174392
0.0109853
0.000182333
0.0110092
0.000214897
0.0110252
0.000222603
0.0110506
0.000262047
0.0110672
0.00027234
0.0110932
0.000317041
0.0111125
0.000332228
0.0111381
0.000381763
0.0111608
0.000404464
0.0111871
0.000457121
0.0112122
0.000491573
0.0112392
0.000546619
0.0112687
0.000594235
0.011294
0.000654563
0.011327
0.000717917
0.011354
0.000782616
0.0113843
0.000869494
0.0114148
0.000940198
0.0114414
0.001052
0.0114729
0.00113877
0.011493
0.00127644
0.0115237
0.00138808
0.0115371
0.00155348
0.0115561
0.00170146
0.0115614
0.00189828
0.0115623
0.00208365
0.0115472
0.00232268
0.0115238
0.00253839
0.0114729
0.00282335
0.011395
0.00307443
0.0113023
0.00338984
0.00369013
0.0111315
0.0100018
-2.86186e-06
0.0100069
-3.70447e-06
0.0100152
-8.99138e-06
0.0100267
-1.01093e-05
0.0100405
-1.42314e-05
0.010057
-1.48335e-05
0.0100745
-1.75216e-05
0.0100937
-1.73097e-05
0.0101132
-1.90622e-05
0.0101337
-1.868e-05
0.0101543
-1.92311e-05
0.0101755
-1.97932e-05
0.0101969
-1.86001e-05
0.0102192
-2.10095e-05
0.0102413
-1.79137e-05
0.0102647
-2.16991e-05
0.0102871
-1.72737e-05
0.010311
-2.09385e-05
0.0103338
-1.66548e-05
0.0103578
-1.90857e-05
0.010381
-1.5907e-05
0.0104047
-1.67661e-05
0.0104284
-1.42728e-05
0.010452
-1.4296e-05
0.0104757
-1.14289e-05
0.0104994
-1.15732e-05
0.0105227
-7.36746e-06
0.0105467
-8.16294e-06
0.0105695
-2.1274e-06
0.0105933
-3.6609e-06
0.0106161
4.11474e-06
0.0106392
2.61456e-06
0.0106621
1.11691e-05
0.0106844
1.10955e-05
0.0107074
1.96188e-05
0.0107291
2.1327e-05
0.0107515
3.06972e-05
0.0107733
3.33172e-05
0.0107947
4.43338e-05
0.0108166
4.86984e-05
0.0108375
5.94884e-05
0.0108588
6.91232e-05
0.0108801
7.67371e-05
0.0109003
9.36506e-05
0.0109222
9.90902e-05
0.0109424
0.000120847
0.0109635
0.000128077
0.0109855
0.000152387
0.0110055
0.000162347
0.0110291
0.000191346
0.0110499
0.000201814
0.0110738
0.00023814
0.0110965
0.000249572
0.0111215
0.000292055
0.011146
0.000307694
0.0111723
0.000355508
0.0112009
0.000375862
0.0112261
0.000431877
0.0112607
0.000457012
0.0112868
0.000520538
0.0113235
0.000557532
0.0113542
0.000623867
0.0113927
0.000679451
0.0114257
0.000749619
0.0114665
0.000828687
0.0115047
0.000901944
0.0115419
0.00101485
0.0115863
0.00109431
0.011621
0.00124181
0.0116663
0.00134274
0.0116949
0.00152488
0.0117364
0.00165999
0.0117573
0.00187737
0.0117774
0.00206349
0.0117906
0.00230949
0.0117675
0.0025615
0.0117619
0.00282896
0.0116791
0.0031572
0.0116222
0.00344677
0.00383703
0.0114753
0.0100018
-4.65841e-06
0.0100073
-9.18594e-06
0.0100158
-1.74911e-05
0.0100281
-2.24195e-05
0.0100421
-2.8244e-05
0.0100594
-3.2147e-05
0.0100768
-3.48644e-05
0.0100967
-3.72091e-05
0.0101159
-3.83172e-05
0.0101368
-3.95501e-05
0.0101573
-3.97155e-05
0.0101786
-4.11663e-05
0.0102004
-4.03346e-05
0.0102226
-4.32152e-05
0.0102452
-4.05698e-05
0.0102684
-4.48173e-05
0.0102912
-4.01385e-05
0.0103152
-4.48735e-05
0.0103379
-3.94317e-05
0.0103624
-4.35542e-05
0.0103853
-3.88075e-05
0.0104097
-4.11831e-05
0.0104332
-3.77268e-05
0.0104571
-3.8217e-05
0.0104812
-3.55366e-05
0.0105046
-3.50127e-05
0.010529
-3.17284e-05
0.0105523
-3.14439e-05
0.0105764
-2.62181e-05
0.0105997
-2.70345e-05
0.0106233
-1.94525e-05
0.0106467
-2.07656e-05
0.0106699
-1.20741e-05
0.0106929
-1.18512e-05
0.0107162
-3.65902e-06
0.0107385
-9.91568e-07
0.0107617
7.51669e-06
0.0107837
1.12401e-05
0.0108064
2.17169e-05
0.0108285
2.65096e-05
0.0108506
3.74215e-05
0.0108727
4.70107e-05
0.0108948
5.46319e-05
0.0109166
7.18873e-05
0.010939
7.66933e-05
0.010961
9.88113e-05
0.0109832
0.00010591
0.0110068
0.000128773
0.0110281
0.000141051
0.0110542
0.000165255
0.0110753
0.000180663
0.0111033
0.00021023
0.011126
0.000226872
0.0111557
0.000262284
0.0111795
0.000283891
0.011214
0.000321029
0.0112369
0.000353016
0.0112778
0.00039097
0.0113018
0.000432961
0.0113459
0.000476403
0.0113752
0.000528291
0.0114223
0.000576723
0.0114555
0.000646245
0.0115068
0.000698307
0.0115476
0.000787983
0.0115981
0.000851392
0.0116483
0.000964649
0.0117013
0.00104134
0.0117555
0.00118755
0.0118086
0.00128963
0.0118702
0.00146333
0.0119139
0.0016163
0.0119757
0.00181555
0.0120054
0.00203381
0.0120473
0.00226755
0.0120575
0.0025513
0.012051
0.00283546
0.0120326
0.00317562
0.0119412
0.00353813
0.00390278
0.0118755
0.0100018
-6.46974e-06
0.0100079
-1.529e-05
0.0100172
-2.68088e-05
0.0100307
-3.59208e-05
0.0100458
-4.32692e-05
0.0100639
-5.02688e-05
0.0100819
-5.28867e-05
0.0101021
-5.74211e-05
0.0101217
-5.78773e-05
0.0101425
-6.03764e-05
0.0101634
-6.06276e-05
0.0101847
-6.24474e-05
0.0102073
-6.29801e-05
0.0102291
-6.49758e-05
0.010253
-6.45066e-05
0.0102751
-6.69189e-05
0.0102995
-6.45421e-05
0.0103222
-6.75726e-05
0.0103465
-6.37055e-05
0.0103699
-6.69729e-05
0.0103941
-6.29487e-05
0.0104178
-6.48599e-05
0.0104423
-6.22884e-05
0.0104656
-6.14572e-05
0.0104909
-6.08939e-05
0.0105135
-5.76341e-05
0.0105393
-5.74839e-05
0.0105618
-5.39721e-05
0.0105872
-5.15677e-05
0.0106101
-4.99711e-05
0.0106348
-4.41076e-05
0.0106579
-4.38605e-05
0.0106824
-3.66099e-05
0.0107048
-3.42594e-05
0.0107299
-2.87895e-05
0.0107513
-2.23395e-05
0.0107766
-1.78022e-05
0.0107981
-1.02559e-05
0.010822
-2.20742e-06
0.0108453
3.18864e-06
0.0108669
1.58193e-05
0.0108919
2.20238e-05
0.0109128
3.38011e-05
0.0109376
4.70469e-05
0.0109596
5.46908e-05
0.0109836
7.47676e-05
0.0110068
8.27931e-05
0.0110318
0.000103719
0.0110546
0.000118308
0.0110825
0.000137294
0.0111047
0.000158496
0.0111358
0.000179152
0.0111585
0.000204152
0.0111931
0.000227698
0.0112163
0.000260628
0.011256
0.000281332
0.0112802
0.00032883
0.0113247
0.00034652
0.0113528
0.000404823
0.0113997
0.000429553
0.0114361
0.000491801
0.0114827
0.000530208
0.0115313
0.000597574
0.0115771
0.00065252
0.01164
0.000725144
0.0116833
0.000808
0.0117661
0.000881939
0.0118054
0.00100204
0.011903
0.00108991
0.0119497
0.00124299
0.0120466
0.00136635
0.0121082
0.00155477
0.0121906
0.00173311
0.0122638
0.00196058
0.0123134
0.002218
0.0123798
0.00248487
0.0123794
0.00283583
0.0124049
0.00315017
0.0123492
0.00359386
0.00398979
0.0122622
0.0100021
-8.60406e-06
0.0100092
-2.24025e-05
0.0100203
-3.78142e-05
0.0100352
-5.08613e-05
0.0100522
-6.02908e-05
0.0100711
-6.91362e-05
0.0100904
-7.22366e-05
0.0101106
-7.75458e-05
0.0101307
-7.80583e-05
0.0101515
-8.11181e-05
0.0101729
-8.20686e-05
0.0101947
-8.4218e-05
0.0102178
-8.60773e-05
0.0102399
-8.7099e-05
0.0102644
-8.8958e-05
0.0102863
-8.88432e-05
0.0103115
-8.97722e-05
0.0103337
-8.97284e-05
0.0103588
-8.88484e-05
0.010382
-9.01427e-05
0.0104064
-8.7403e-05
0.0104307
-8.91194e-05
0.0104548
-8.64083e-05
0.0104793
-8.59062e-05
0.010504
-8.55948e-05
0.0105276
-8.13052e-05
0.0105533
-8.30995e-05
0.0105763
-7.69737e-05
0.010602
-7.72729e-05
0.0106253
-7.33457e-05
0.0106501
-6.8822e-05
0.0106744
-6.8185e-05
0.0106981
-6.03602e-05
0.0107227
-5.88533e-05
0.0107465
-5.25439e-05
0.0107704
-4.62901e-05
0.0107946
-4.19512e-05
0.0108184
-3.40526e-05
0.0108417
-2.55255e-05
0.0108668
-2.19119e-05
0.0108882
-5.60137e-06
0.0109153
-5.10568e-06
0.0109354
1.36929e-05
0.0109631
1.93852e-05
0.0109845
3.32859e-05
0.0110107
4.85453e-05
0.0110348
5.86907e-05
0.0110608
7.77181e-05
0.0110853
9.38138e-05
0.0111147
0.000107921
0.0111385
0.000134676
0.0111699
0.000147803
0.0111991
0.000174933
0.0112267
0.000200046
0.0112654
0.000222018
0.0112916
0.000255075
0.0113357
0.00028473
0.0113651
0.000317112
0.0114164
0.000353587
0.0114451
0.000400791
0.0115094
0.000427546
0.0115376
0.000502005
0.0116134
0.000521802
0.0116474
0.000618422
0.0117308
0.000641816
0.0117789
0.000759828
0.0118661
0.00079482
0.0119339
0.000934249
0.0120238
0.001
0.0121171
0.00114966
0.0122042
0.00127924
0.0123217
0.00143726
0.0124066
0.00164823
0.012532
0.00183519
0.0126154
0.00213456
0.0127002
0.00240012
0.0127847
0.00275136
0.0127887
0.00314617
0.0128183
0.00356424
0.00407148
0.0127366
0.0100029
-1.1465e-05
0.0100118
-3.13288e-05
0.0100256
-5.15777e-05
0.010043
-6.83531e-05
0.0100624
-7.96898e-05
0.0100825
-8.91921e-05
0.0101028
-9.25021e-05
0.0101231
-9.78808e-05
0.0101436
-9.85239e-05
0.010165
-0.000102547
0.0101866
-0.000103689
0.0102099
-0.000107467
0.0102324
-0.000108594
0.0102564
-0.000111071
0.0102796
-0.000112192
0.0103033
-0.000112585
0.0103273
-0.000113728
0.010351
-0.00011344
0.0103752
-0.000113006
0.0103997
-0.000114699
0.0104233
-0.000111011
0.010449
-0.000114844
0.0104722
-0.000109583
0.0104983
-0.000111954
0.010522
-0.000109358
0.0105472
-0.000106441
0.0105722
-0.000108098
0.0105963
-0.000101143
0.0106217
-0.000102615
0.0106463
-9.80033e-05
0.0106703
-9.28354e-05
0.0106966
-9.44668e-05
0.0107191
-8.28737e-05
0.010746
-8.57375e-05
0.0107688
-7.53606e-05
0.0107944
-7.18207e-05
0.0108188
-6.64267e-05
0.0108428
-5.79868e-05
0.0108679
-5.06503e-05
0.0108923
-4.62903e-05
0.0109159
-2.91823e-05
0.0109429
-3.20977e-05
0.0109637
-7.16928e-06
0.0109933
-1.02088e-05
0.0110139
1.27435e-05
0.011043
1.9396e-05
0.011067
3.46852e-05
0.0110942
5.05062e-05
0.0111211
6.6957e-05
0.0111503
7.87213e-05
0.0111764
0.000108584
0.0112096
0.000114523
0.0112393
0.000145328
0.01127
0.000169337
0.0113107
0.000181246
0.0113377
0.000228117
0.0113857
0.000236676
0.0114192
0.000283621
0.0114669
0.000305957
0.0115128
0.000354908
0.0115602
0.000380057
0.0116209
0.000441356
0.0116674
0.000475315
0.0117475
0.000538324
0.0117947
0.00059462
0.0118961
0.000658449
0.0119486
0.000742231
0.0120688
0.000814059
0.0121438
0.000924993
0.0122685
0.00102504
0.0123835
0.00116416
0.0125034
0.00131735
0.0126652
0.00148644
0.0127746
0.00172584
0.0129452
0.00196391
0.013068
0.00227739
0.0131783
0.00264102
0.013289
0.00303544
0.0133104
0.00354289
0.00407663
0.0133052
0.0100041
-1.56035e-05
0.0100167
-4.38944e-05
0.0100348
-6.97163e-05
0.0100565
-8.99773e-05
0.0100781
-0.000101305
0.0100994
-0.000110499
0.0101199
-0.00011297
0.0101406
-0.000118647
0.0101618
-0.000119658
0.0101842
-0.000124998
0.0102066
-0.000126095
0.0102308
-0.000131698
0.0102536
-0.000131363
0.0102785
-0.000135972
0.0103014
-0.000135105
0.010326
-0.000137149
0.0103497
-0.000137477
0.0103739
-0.000137582
0.0103984
-0.000137554
0.0104229
-0.000139167
0.0104473
-0.000135392
0.0104728
-0.000140365
0.0104966
-0.000133339
0.0105227
-0.000138139
0.0105467
-0.000133319
0.0105721
-0.000131857
0.0105976
-0.000133564
0.0106213
-0.00012482
0.0106484
-0.000129746
0.0106709
-0.000120532
0.0106985
-0.000120366
0.0107212
-0.000117166
0.0107481
-0.000109774
0.0107712
-0.000108878
0.0107979
-0.000102019
0.0108205
-9.45054e-05
0.0108479
-9.38244e-05
0.0108693
-7.93569e-05
0.0108981
-7.94726e-05
0.010918
-6.61795e-05
0.010948
-5.9168e-05
0.0109678
-5.18963e-05
0.0109971
-3.64418e-05
0.0110194
-3.25521e-05
0.0110471
-1.49207e-05
0.011071
-4.52146e-06
0.0111016
4.03315e-06
0.0111225
2.9669e-05
0.0111585
3.096e-05
0.0111801
5.71424e-05
0.0112142
7.44386e-05
0.0112458
8.29478e-05
0.0112742
0.000116927
0.0113145
0.000129037
0.0113447
0.000151043
0.011389
0.000183769
0.011423
0.000202759
0.0114762
0.000230389
0.0115095
0.000272616
0.0115777
0.000286726
0.0116097
0.000348041
0.0116927
0.000358359
0.0117335
0.000434532
0.0118202
0.000451666
0.011887
0.000527758
0.0119718
0.000573625
0.012068
0.000646122
0.0121598
0.000722173
0.0122865
0.000798323
0.0124007
0.000910809
0.0125456
0.00101926
0.0127101
0.00115288
0.0128699
0.00132666
0.013075
0.00152072
0.0132571
0.00178187
0.0134634
0.00207106
0.0136449
0.00245948
0.0137889
0.00289146
0.0139444
0.00338741
0.00408428
0.0139368
0.0100067
-2.23053e-05
0.0100272
-6.43451e-05
0.0100516
-9.42081e-05
0.0100775
-0.00011588
0.0101005
-0.000124257
0.0101232
-0.000133161
0.0101439
-0.000133709
0.0101653
-0.000140009
0.0101877
-0.000142049
0.010211
-0.000148302
0.0102351
-0.000150223
0.0102593
-0.000155872
0.0102831
-0.00015524
0.0103073
-0.000160146
0.0103307
-0.000158464
0.0103549
-0.000161337
0.0103783
-0.000160932
0.0104026
-0.000161914
0.0104263
-0.000161243
0.0104509
-0.000163772
0.0104745
-0.000158918
0.0104993
-0.000165235
0.0105227
-0.000156674
0.0105473
-0.000162818
0.0105709
-0.000156883
0.0105948
-0.000155728
0.0106189
-0.00015768
0.0106418
-0.000147767
0.0106663
-0.000154191
0.0106887
-0.000142964
0.0107129
-0.000144544
0.0107353
-0.00013956
0.0107588
-0.00013323
0.0107814
-0.000131534
0.0108038
-0.000124425
0.0108272
-0.000117898
0.010848
-0.000114627
0.0108728