/*--------------------------------*- C++ -*----------------------------------*\
| =========                 |                                                 |
| \\      /  F ield         | OpenFOAM: The Open Source CFD Toolbox           |
|  \\    /   O peration     | Version:  2306                                  |
|   \\  /    A nd           | Website:  www.openfoam.com                      |
|    \\/     M anipulation  |                                                 |
\*---------------------------------------------------------------------------*/
FoamFile
{
    version     2.0;
    format      ascii;
    arch        "LSB;label=32;scalar=64";
    class       volVectorField;
    location    "0.425";
    object      U;
}
// * * * * * * * * * * * * * * * * * * * * * * * * * * * * * * * * * * * * * //

dimensions      [0 1 -1 0 0 0 0];

internalField   nonuniform List<vector> 
4400
(
(9.90178 0.0455324 0)
(9.80627 0.0986948 0)
(9.70005 0.120974 0)
(9.57018 0.125776 0)
(9.4182 0.124492 0)
(9.2522 0.123455 0)
(9.08062 0.124131 0)
(8.9082 0.125698 0)
(8.73729 0.126966 0)
(8.56779 0.127429 0)
(8.40014 0.126859 0)
(8.23331 0.125553 0)
(8.068 0.123771 0)
(7.90322 0.121732 0)
(7.74 0.119682 0)
(7.57757 0.117513 0)
(7.41698 0.115456 0)
(7.25754 0.113236 0)
(7.10009 0.11109 0)
(6.94411 0.108762 0)
(6.79022 0.106462 0)
(6.63804 0.104053 0)
(6.48802 0.101611 0)
(6.33986 0.0991608 0)
(6.19402 0.0966229 0)
(6.05001 0.094166 0)
(5.90859 0.0916089 0)
(5.76883 0.0891624 0)
(5.63199 0.0866396 0)
(5.49648 0.0842447 0)
(5.36425 0.0818198 0)
(5.233 0.0795362 0)
(5.10526 0.0772341 0)
(4.97807 0.0751028 0)
(4.85444 0.0729872 0)
(4.73093 0.071072 0)
(4.61088 0.0692006 0)
(4.49038 0.0676206 0)
(4.37309 0.0661504 0)
(4.25462 0.0650317 0)
(4.13893 0.0641215 0)
(4.02123 0.0636045 0)
(3.90561 0.0634605 0)
(3.7871 0.0636894 0)
(3.66965 0.0644383 0)
(3.54822 0.0655258 0)
(3.42656 0.0673094 0)
(3.29955 0.069392 0)
(3.17077 0.0723545 0)
(3.03487 0.0755586 0)
(2.89554 0.0798081 0)
(2.74684 0.0842547 0)
(2.59299 0.0898555 0)
(2.42709 0.0955529 0)
(2.25432 0.102414 0)
(2.0666 0.109111 0)
(1.87046 0.116794 0)
(1.65664 0.123749 0)
(1.43348 0.131152 0)
(1.19071 0.136726 0)
(0.93898 0.141467 0)
(0.667236 0.141941 0)
(0.388847 0.134953 0)
(0.109797 0.103288 0)
(-0.143908 0.0480643 0)
(-0.391519 -0.0357678 0)
(-0.568851 -0.128527 0)
(-0.684936 -0.238988 0)
(-0.693427 -0.3632 0)
(-0.626424 -0.502409 0)
(-0.425031 -0.625741 0)
(-0.164922 -0.708103 0)
(0.123105 -0.565351 0)
(0.282276 -0.200999 0)
(0.364814 0.504035 0)
(-0.396697 0.904537 0)
(-0.572503 0.282751 0)
(-0.190232 -0.0766945 0)
(0.0268873 -0.0887741 0)
(-0.174675 -0.249038 0)
(10.0002 0.0612369 0)
(10.0319 0.137398 0)
(10.0696 0.17364 0)
(10.105 0.184924 0)
(10.1326 0.186155 0)
(10.15 0.186282 0)
(10.1591 0.188198 0)
(10.1608 0.192057 0)
(10.1593 0.195804 0)
(10.1536 0.199231 0)
(10.1469 0.201002 0)
(10.1366 0.202107 0)
(10.1254 0.202077 0)
(10.1105 0.201893 0)
(10.0942 0.201275 0)
(10.0745 0.200751 0)
(10.0531 0.20007 0)
(10.0291 0.199382 0)
(10.0028 0.198614 0)
(9.97476 0.19764 0)
(9.94437 0.196683 0)
(9.91238 0.195451 0)
(9.87839 0.19425 0)
(9.84241 0.19284 0)
(9.80531 0.191405 0)
(9.7653 0.18989 0)
(9.72544 0.188282 0)
(9.68139 0.18673 0)
(9.63897 0.184973 0)
(9.59101 0.183479 0)
(9.54596 0.181643 0)
(9.49433 0.180248 0)
(9.44639 0.178479 0)
(9.3912 0.177204 0)
(9.34013 0.175644 0)
(9.28121 0.174641 0)
(9.22679 0.173361 0)
(9.16378 0.172872 0)
(9.10556 0.172056 0)
(9.03798 0.172249 0)
(8.97514 0.172229 0)
(8.90237 0.173245 0)
(8.83379 0.174409 0)
(8.75493 0.176603 0)
(8.6792 0.179272 0)
(8.59295 0.183115 0)
(8.5083 0.187573 0)
(8.41284 0.193614 0)
(8.31712 0.20016 0)
(8.20989 0.209034 0)
(8.10057 0.21795 0)
(7.97826 0.230229 0)
(7.85212 0.241914 0)
(7.71083 0.257955 0)
(7.56376 0.272793 0)
(7.39896 0.292695 0)
(7.226 0.310716 0)
(7.03256 0.334148 0)
(6.82811 0.354652 0)
(6.60049 0.380311 0)
(6.35877 0.400977 0)
(6.09141 0.425558 0)
(5.80691 0.440705 0)
(5.49612 0.456153 0)
(5.17145 0.454069 0)
(4.82682 0.449693 0)
(4.4457 0.416867 0)
(4.03936 0.383133 0)
(3.56165 0.322278 0)
(3.03435 0.280673 0)
(2.34333 0.214276 0)
(1.51228 0.218921 0)
(0.459553 0.143022 0)
(-0.216092 0.00369517 0)
(-0.599847 0.0877291 0)
(-0.53247 0.000609384 0)
(-0.223393 -0.581803 0)
(-0.602049 -0.637745 0)
(-0.593652 0.0939092 0)
(-0.543858 0.569883 0)
(10.0001 0.0268832 0)
(10.0167 0.0695325 0)
(10.0428 0.10007 0)
(10.0747 0.117301 0)
(10.1085 0.127018 0)
(10.1393 0.131735 0)
(10.1674 0.135968 0)
(10.1908 0.140344 0)
(10.2131 0.145294 0)
(10.2329 0.150486 0)
(10.2535 0.154792 0)
(10.2731 0.158805 0)
(10.2933 0.161657 0)
(10.3132 0.164143 0)
(10.3321 0.166161 0)
(10.3515 0.167722 0)
(10.3683 0.169655 0)
(10.387 0.170635 0)
(10.4014 0.172648 0)
(10.419 0.173137 0)
(10.4315 0.175048 0)
(10.4475 0.175284 0)
(10.4584 0.176784 0)
(10.4723 0.17704 0)
(10.4819 0.177989 0)
(10.4931 0.17841 0)
(10.5014 0.178882 0)
(10.5098 0.179504 0)
(10.5164 0.179607 0)
(10.522 0.180483 0)
(10.5265 0.180358 0)
(10.5292 0.181486 0)
(10.5313 0.1814 0)
(10.5311 0.1828 0)
(10.5305 0.182972 0)
(10.5268 0.184892 0)
(10.5234 0.185388 0)
(10.5159 0.18818 0)
(10.5094 0.18928 0)
(10.4976 0.193048 0)
(10.4874 0.195397 0)
(10.471 0.200142 0)
(10.4565 0.204413 0)
(10.4352 0.210496 0)
(10.4153 0.217273 0)
(10.3885 0.225127 0)
(10.3623 0.235203 0)
(10.3289 0.245144 0)
(10.2953 0.25944 0)
(10.2542 0.272099 0)
(10.2119 0.291104 0)
(10.1612 0.307604 0)
(10.1086 0.331561 0)
(10.0459 0.352977 0)
(9.98138 0.382248 0)
(9.90364 0.409146 0)
(9.82466 0.443947 0)
(9.72899 0.476089 0)
(9.63113 0.516158 0)
(9.51465 0.551463 0)
(9.39161 0.595183 0)
(9.25048 0.628647 0)
(9.09362 0.670845 0)
(8.92147 0.693995 0)
(8.71835 0.724467 0)
(8.50456 0.728236 0)
(8.2323 0.740264 0)
(7.9475 0.727418 0)
(7.58423 0.739013 0)
(7.19958 0.745252 0)
(6.72384 0.807227 0)
(6.20806 0.878427 0)
(5.62009 1.00205 0)
(4.9548 0.986523 0)
(4.34609 0.906794 0)
(3.33187 0.751471 0)
(2.67385 0.505688 0)
(1.29213 0.360182 0)
(-0.00861947 -0.10343 0)
(-0.211558 -0.451243 0)
(10.0001 0.0189627 0)
(10.0101 0.0523806 0)
(10.0278 0.0808827 0)
(10.0511 0.100924 0)
(10.0781 0.115009 0)
(10.105 0.122881 0)
(10.132 0.128537 0)
(10.1559 0.132519 0)
(10.1799 0.13624 0)
(10.201 0.140513 0)
(10.2239 0.143686 0)
(10.2451 0.14795 0)
(10.2686 0.149898 0)
(10.2908 0.153278 0)
(10.3147 0.154053 0)
(10.3377 0.156609 0)
(10.3612 0.156984 0)
(10.3846 0.158879 0)
(10.4072 0.159472 0)
(10.4308 0.160663 0)
(10.4528 0.161767 0)
(10.4761 0.162246 0)
(10.4978 0.16375 0)
(10.5203 0.163712 0)
(10.542 0.165413 0)
(10.5632 0.165174 0)
(10.5851 0.166876 0)
(10.6043 0.166775 0)
(10.6265 0.168313 0)
(10.6434 0.168651 0)
(10.6656 0.170033 0)
(10.6802 0.170843 0)
(10.702 0.172466 0)
(10.7143 0.173599 0)
(10.7352 0.175881 0)
(10.745 0.177486 0)
(10.7648 0.180485 0)
(10.7721 0.183102 0)
(10.7902 0.186895 0)
(10.7948 0.190849 0)
(10.8111 0.196075 0)
(10.8126 0.201281 0)
(10.8268 0.208922 0)
(10.8251 0.215408 0)
(10.8361 0.22622 0)
(10.8322 0.23455 0)
(10.8386 0.248768 0)
(10.8325 0.260299 0)
(10.834 0.277624 0)
(10.8246 0.294231 0)
(10.8216 0.314469 0)
(10.8083 0.337398 0)
(10.7995 0.361517 0)
(10.7826 0.390995 0)
(10.767 0.420278 0)
(10.7452 0.456774 0)
(10.723 0.491208 0)
(10.6934 0.535449 0)
(10.6645 0.574058 0)
(10.6237 0.625353 0)
(10.5863 0.666001 0)
(10.5284 0.721782 0)
(10.4791 0.760152 0)
(10.393 0.815181 0)
(10.3232 0.847533 0)
(10.1936 0.89556 0)
(10.0859 0.928029 0)
(9.89572 0.974876 0)
(9.73408 1.02549 0)
(9.4662 1.09203 0)
(9.24231 1.18013 0)
(8.87871 1.28179 0)
(8.59144 1.38354 0)
(8.10501 1.46746 0)
(7.72147 1.49091 0)
(7.10119 1.5289 0)
(6.52335 1.49102 0)
(5.82938 1.51947 0)
(4.90926 1.49873 0)
(4.0661 1.24229 0)
(10.0003 0.0133642 0)
(10.0068 0.0382809 0)
(10.0198 0.0606315 0)
(10.0369 0.0775739 0)
(10.0588 0.0908702 0)
(10.0813 0.098522 0)
(10.1063 0.104828 0)
(10.1283 0.107907 0)
(10.1528 0.111677 0)
(10.1728 0.114199 0)
(10.1969 0.117462 0)
(10.2162 0.120362 0)
(10.2413 0.12284 0)
(10.2609 0.125512 0)
(10.2873 0.126938 0)
(10.3073 0.129142 0)
(10.3342 0.129943 0)
(10.3545 0.131621 0)
(10.3812 0.132462 0)
(10.4017 0.133581 0)
(10.4283 0.134949 0)
(10.4486 0.135421 0)
(10.4753 0.137342 0)
(10.495 0.137281 0)
(10.5221 0.139642 0)
(10.5408 0.139248 0)
(10.5683 0.141964 0)
(10.5859 0.141444 0)
(10.6134 0.144429 0)
(10.63 0.144172 0)
(10.6569 0.147162 0)
(10.6728 0.147712 0)
(10.6988 0.150468 0)
(10.7137 0.152343 0)
(10.7391 0.154732 0)
(10.7521 0.158454 0)
(10.7771 0.160367 0)
(10.7881 0.166499 0)
(10.8121 0.168079 0)
(10.8218 0.176875 0)
(10.8437 0.178663 0)
(10.8525 0.190355 0)
(10.8723 0.19279 0)
(10.8796 0.207948 0)
(10.8974 0.211635 0)
(10.9035 0.229967 0)
(10.9179 0.237375 0)
(10.9246 0.25676 0)
(10.9337 0.271528 0)
(10.9422 0.290702 0)
(10.9462 0.313873 0)
(10.955 0.33516 0)
(10.9562 0.364983 0)
(10.9631 0.391644 0)
(10.9637 0.427196 0)
(10.9667 0.460873 0)
(10.969 0.501516 0)
(10.9646 0.544074 0)
(10.9723 0.587984 0)
(10.9557 0.63912 0)
(10.9687 0.687696 0)
(10.9381 0.740851 0)
(10.9494 0.797996 0)
(10.9021 0.847713 0)
(10.9038 0.912129 0)
(10.8271 0.963988 0)
(10.8145 1.03438 0)
(10.6939 1.10066 0)
(10.6551 1.18673 0)
(10.4885 1.27536 0)
(10.4028 1.38937 0)
(10.1932 1.50333 0)
(10.0443 1.63352 0)
(9.78759 1.75586 0)
(9.54612 1.86746 0)
(9.23381 1.96424 0)
(8.83902 2.03514 0)
(8.42777 2.06925 0)
(7.80771 2.07752 0)
(7.14587 1.95716 0)
(10.0014 0.00952542 0)
(10.0039 0.0279803 0)
(10.0164 0.0448695 0)
(10.0276 0.0585795 0)
(10.0479 0.0701887 0)
(10.0649 0.0773555 0)
(10.0898 0.0838376 0)
(10.1083 0.0866062 0)
(10.1342 0.0906585 0)
(10.1518 0.0921225 0)
(10.178 0.0956332 0)
(10.195 0.0972055 0)
(10.2219 0.100217 0)
(10.239 0.101835 0)
(10.2672 0.104014 0)
(10.2846 0.105539 0)
(10.3135 0.106829 0)
(10.3313 0.108253 0)
(10.3601 0.10906 0)
(10.3785 0.110474 0)
(10.4068 0.11131 0)
(10.4257 0.112517 0)
(10.4532 0.113663 0)
(10.4728 0.114616 0)
(10.4994 0.116089 0)
(10.5193 0.116997 0)
(10.5454 0.118593 0)
(10.565 0.119797 0)
(10.5909 0.121374 0)
(10.6097 0.123187 0)
(10.6351 0.124721 0)
(10.6535 0.12734 0)
(10.6777 0.129038 0)
(10.6959 0.132519 0)
(10.719 0.134602 0)
(10.7361 0.139364 0)
(10.759 0.141434 0)
(10.7737 0.148803 0)
(10.7973 0.149978 0)
(10.809 0.160954 0)
(10.8333 0.161848 0)
(10.8416 0.175305 0)
(10.8673 0.178754 0)
(10.8713 0.192624 0)
(10.8993 0.200764 0)
(10.8978 0.215267 0)
(10.9293 0.22782 0)
(10.9216 0.244791 0)
(10.9571 0.261924 0)
(10.9433 0.281219 0)
(10.9824 0.305637 0)
(10.9635 0.325848 0)
(11.0063 0.359804 0)
(10.9821 0.381064 0)
(11.0297 0.425684 0)
(11.0005 0.447401 0)
(11.0512 0.505297 0)
(11.021 0.526121 0)
(11.0704 0.596472 0)
(11.0408 0.621863 0)
(11.0896 0.694424 0)
(11.0536 0.735896 0)
(11.1046 0.801043 0)
(11.0576 0.862606 0)
(11.1012 0.924729 0)
(11.047 1.00271 0)
(11.0702 1.07106 0)
(11.0028 1.17172 0)
(11.0043 1.2491 0)
(10.9137 1.38181 0)
(10.8833 1.47876 0)
(10.7803 1.63547 0)
(10.6935 1.76318 0)
(10.5885 1.92641 0)
(10.428 2.06894 0)
(10.2957 2.21405 0)
(10.0393 2.34404 0)
(9.81074 2.43822 0)
(9.42087 2.54421 0)
(9.00039 2.5579 0)
(10.0026 0.00671536 0)
(10.0018 0.0202224 0)
(10.0148 0.0324647 0)
(10.0219 0.0432188 0)
(10.0412 0.0522669 0)
(10.0549 0.0587086 0)
(10.0783 0.064288 0)
(10.0954 0.0669907 0)
(10.1202 0.0706418 0)
(10.1382 0.0715783 0)
(10.1633 0.0748923 0)
(10.1813 0.0754811 0)
(10.2068 0.0785885 0)
(10.2249 0.0793112 0)
(10.2516 0.0817522 0)
(10.2699 0.0827955 0)
(10.2975 0.0840591 0)
(10.316 0.0855966 0)
(10.3439 0.0858398 0)
(10.363 0.0880487 0)
(10.3904 0.0876936 0)
(10.4103 0.0903134 0)
(10.4364 0.0898588 0)
(10.4578 0.0925362 0)
(10.482 0.092548 0)
(10.505 0.0947842 0)
(10.5274 0.0958548 0)
(10.5513 0.0972444 0)
(10.5727 0.0997731 0)
(10.5962 0.100406 0)
(10.6175 0.104213 0)
(10.64 0.104759 0)
(10.6611 0.109469 0)
(10.6824 0.110441 0)
(10.7038 0.116154 0)
(10.7225 0.117594 0)
(10.7458 0.12472 0)
(10.7601 0.127006 0)
(10.7868 0.135202 0)
(10.7952 0.139726 0)
(10.8263 0.147835 0)
(10.8279 0.156522 0)
(10.8643 0.163627 0)
(10.8579 0.17768 0)
(10.9009 0.18415 0)
(10.8858 0.203325 0)
(10.9355 0.211243 0)
(10.9124 0.234085 0)
(10.968 0.246393 0)
(10.9384 0.27121 0)
(10.9977 0.290696 0)
(10.9663 0.316484 0)
(11.0234 0.344886 0)
(10.9975 0.372659 0)
(11.0471 0.408319 0)
(11.0295 0.443216 0)
(11.0726 0.481004 0)
(11.0615 0.52824 0)
(11.0985 0.567211 0)
(11.0961 0.624004 0)
(11.1213 0.671252 0)
(11.1307 0.731522 0)
(11.1427 0.790474 0)
(11.1559 0.859617 0)
(11.1606 0.924659 0)
(11.1686 1.01188 0)
(11.1606 1.08761 0)
(11.1671 1.19205 0)
(11.1364 1.28761 0)
(11.1335 1.42082 0)
(11.0917 1.52794 0)
(11.0596 1.70474 0)
(11.0117 1.82512 0)
(10.9506 2.02579 0)
(10.8785 2.17096 0)
(10.7832 2.36048 0)
(10.6574 2.52498 0)
(10.4997 2.68478 0)
(10.2773 2.84427 0)
(10.005 2.98257 0)
(10.0029 0.00434456 0)
(10.0013 0.0140134 0)
(10.0133 0.0219224 0)
(10.0195 0.0301501 0)
(10.0363 0.035939 0)
(10.0498 0.0416931 0)
(10.0697 0.0450662 0)
(10.0883 0.0482428 0)
(10.1093 0.0501603 0)
(10.1305 0.0517756 0)
(10.1515 0.0535363 0)
(10.1735 0.0544819 0)
(10.1946 0.0564164 0)
(10.2172 0.0572336 0)
(10.239 0.0590812 0)
(10.2619 0.0599355 0)
(10.2845 0.0611044 0)
(10.3076 0.0623235 0)
(10.331 0.0627177 0)
(10.354 0.064694 0)
(10.3779 0.0643405 0)
(10.4006 0.0670794 0)
(10.4247 0.0662603 0)
(10.4476 0.0696375 0)
(10.4708 0.0687491 0)
(10.4948 0.0723707 0)
(10.5161 0.072038 0)
(10.5417 0.0752674 0)
(10.5613 0.0763714 0)
(10.5872 0.0785787 0)
(10.6064 0.0817756 0)
(10.6311 0.0828087 0)
(10.6513 0.0884347 0)
(10.6731 0.0882283 0)
(10.6959 0.0967893 0)
(10.7127 0.0952499 0)
(10.7404 0.10681 0)
(10.7497 0.105257 0)
(10.7844 0.117869 0)
(10.7843 0.119526 0)
(10.8274 0.13066 0)
(10.8168 0.137662 0)
(10.8691 0.147515 0)
(10.8479 0.15909 0)
(10.9087 0.169543 0)
(10.8786 0.185527 0)
(10.945 0.19639 0)
(10.9108 0.218976 0)
(10.9776 0.229253 0)
(10.9446 0.259787 0)
(11.0078 0.270244 0)
(10.9797 0.308876 0)
(11.037 0.320722 0)
(11.0165 0.366984 0)
(11.0656 0.383876 0)
(11.0562 0.432772 0)
(11.0943 0.462841 0)
(11.0981 0.508466 0)
(11.1248 0.555014 0)
(11.14 0.600555 0)
(11.1579 0.659156 0)
(11.1812 0.709718 0)
(11.1891 0.783319 0)
(11.2222 0.834928 0)
(11.2148 0.931506 0)
(11.2552 0.98854 0)
(11.2357 1.10427 0)
(11.2737 1.17808 0)
(11.2397 1.32099 0)
(11.2802 1.4044 0)
(11.22 1.59117 0)
(11.2596 1.68896 0)
(11.1817 1.90641 0)
(11.2022 2.03799 0)
(11.1064 2.26132 0)
(11.0984 2.43909 0)
(10.9701 2.63667 0)
(10.906 2.86938 0)
(10.7274 3.02877 0)
(10.5673 3.28215 0)
(10.0022 0.00195729 0)
(10.0017 0.00896351 0)
(10.0117 0.0121984 0)
(10.0188 0.0186182 0)
(10.0327 0.0204892 0)
(10.0476 0.0258697 0)
(10.0638 0.0261715 0)
(10.0849 0.0301207 0)
(10.1016 0.0296085 0)
(10.1269 0.0322852 0)
(10.1427 0.0321224 0)
(10.1701 0.0336699 0)
(10.1855 0.0343848 0)
(10.2141 0.0352569 0)
(10.2296 0.0365584 0)
(10.2586 0.0370431 0)
(10.2748 0.0382754 0)
(10.3042 0.0388227 0)
(10.3212 0.0399621 0)
(10.3504 0.0406671 0)
(10.3684 0.0418453 0)
(10.3967 0.042626 0)
(10.4159 0.044012 0)
(10.4429 0.0450829 0)
(10.4633 0.0465959 0)
(10.489 0.0480319 0)
(10.5103 0.049979 0)
(10.5349 0.0512651 0)
(10.5569 0.0546032 0)
(10.58 0.0549547 0)
(10.603 0.0603293 0)
(10.6242 0.0600047 0)
(10.6485 0.0667927 0)
(10.6672 0.0670648 0)
(10.6936 0.0744738 0)
(10.7081 0.0758477 0)
(10.7389 0.0847011 0)
(10.7465 0.0860943 0)
(10.7836 0.097891 0)
(10.7835 0.0991183 0)
(10.8265 0.113206 0)
(10.8201 0.117102 0)
(10.8675 0.130278 0)
(10.8559 0.141046 0)
(10.9071 0.150107 0)
(10.8912 0.171377 0)
(10.9449 0.173989 0)
(10.927 0.208685 0)
(10.9811 0.203737 0)
(10.9636 0.252226 0)
(11.0163 0.243394 0)
(11.0026 0.300321 0)
(11.0491 0.295656 0)
(11.0466 0.355259 0)
(11.0801 0.358786 0)
(11.0942 0.421726 0)
(11.1133 0.432713 0)
(11.1434 0.499665 0)
(11.1482 0.523284 0)
(11.1977 0.587273 0)
(11.182 0.632912 0)
(11.2543 0.692161 0)
(11.2204 0.758045 0)
(11.3056 0.8228 0)
(11.2614 0.906075 0)
(11.355 0.979213 0)
(11.2945 1.08724 0)
(11.3991 1.17497 0)
(11.3204 1.30253 0)
(11.4297 1.42358 0)
(11.33 1.56798 0)
(11.4454 1.72731 0)
(11.3179 1.89257 0)
(11.4252 2.0934 0)
(11.2829 2.28117 0)
(11.3534 2.5032 0)
(11.1929 2.74195 0)
(11.2146 2.94796 0)
(11.0108 3.23828 0)
(10.9512 3.44303 0)
(10.0012 -0.000104657 0)
(10.0025 0.00398237 0)
(10.0102 0.0034717 0)
(10.0191 0.00714523 0)
(10.0304 0.00641129 0)
(10.0473 0.00970935 0)
(10.0603 0.00862838 0)
(10.0843 0.0112335 0)
(10.0969 0.0102355 0)
(10.1264 0.0118539 0)
(10.1373 0.0117422 0)
(10.1701 0.0120134 0)
(10.1798 0.0134343 0)
(10.2142 0.0124757 0)
(10.2239 0.0150966 0)
(10.2584 0.0133282 0)
(10.2692 0.0163321 0)
(10.3038 0.0147523 0)
(10.3159 0.0176121 0)
(10.3499 0.016539 0)
(10.3634 0.0192485 0)
(10.396 0.0183687 0)
(10.4115 0.0215556 0)
(10.4419 0.0205746 0)
(10.4598 0.0244048 0)
(10.4878 0.0235652 0)
(10.5077 0.027741 0)
(10.5333 0.0274778 0)
(10.5556 0.0319614 0)
(10.5779 0.0321945 0)
(10.6033 0.0375133 0)
(10.6218 0.0378009 0)
(10.6501 0.0447862 0)
(10.6656 0.0444478 0)
(10.6953 0.0541411 0)
(10.7088 0.0527127 0)
(10.7398 0.0653059 0)
(10.7502 0.0642229 0)
(10.7841 0.0772435 0)
(10.79 0.0805339 0)
(10.8277 0.0902444 0)
(10.8291 0.10133 0)
(10.8702 0.106856 0)
(10.8669 0.125107 0)
(10.9128 0.129278 0)
(10.9035 0.152249 0)
(10.9546 0.157802 0)
(10.9418 0.184871 0)
(10.9934 0.192014 0)
(10.9834 0.225012 0)
(11.0311 0.232213 0)
(11.0265 0.273982 0)
(11.0696 0.280653 0)
(11.0739 0.330451 0)
(11.1053 0.342357 0)
(11.1304 0.392807 0)
(11.1382 0.419112 0)
(11.1926 0.466124 0)
(11.1756 0.507214 0)
(11.2557 0.557119 0)
(11.2174 0.610107 0)
(11.3251 0.663222 0)
(11.2582 0.737313 0)
(11.3982 0.790116 0)
(11.3068 0.88549 0)
(11.4615 0.954016 0)
(11.3662 1.06047 0)
(11.5147 1.15751 0)
(11.4282 1.27943 0)
(11.5543 1.40872 0)
(11.4878 1.55614 0)
(11.5777 1.71087 0)
(11.5259 1.91044 0)
(11.5816 2.07416 0)
(11.5273 2.33119 0)
(11.5426 2.52662 0)
(11.479 2.80622 0)
(11.4298 3.04784 0)
(11.3429 3.36881 0)
(11.2202 3.58712 0)
(9.99978 -0.00198659 0)
(10.0041 -0.00114883 0)
(10.0085 -0.0048868 0)
(10.0206 -0.00431345 0)
(10.0289 -0.007294 0)
(10.0488 -0.0064061 0)
(10.059 -0.00877396 0)
(10.0857 -0.00749106 0)
(10.0957 -0.00931571 0)
(10.1279 -0.00827996 0)
(10.1361 -0.00900645 0)
(10.1717 -0.00918983 0)
(10.1788 -0.00792218 0)
(10.2158 -0.00983912 0)
(10.223 -0.00682119 0)
(10.2599 -0.00991348 0)
(10.2689 -0.00611933 0)
(10.3049 -0.00879116 0)
(10.3163 -0.00546469 0)
(10.3507 -0.00682936 0)
(10.3644 -0.00456052 0)
(10.3967 -0.00454622 0)
(10.413 -0.00282197 0)
(10.443 -0.00200931 0)
(10.4613 -9.40912e-05 0)
(10.4896 0.000896202 0)
(10.5091 0.00378472 0)
(10.5362 0.00425655 0)
(10.5568 0.00916698 0)
(10.582 0.00816316 0)
(10.6046 0.0160047 0)
(10.627 0.0135897 0)
(10.6517 0.0233868 0)
(10.6717 0.0218795 0)
(10.6978 0.0310888 0)
(10.7158 0.0329605 0)
(10.7437 0.0407214 0)
(10.7581 0.0456843 0)
(10.7897 0.0537694 0)
(10.7992 0.0605665 0)
(10.8346 0.0696877 0)
(10.8408 0.0793442 0)
(10.8773 0.0885719 0)
(10.8832 0.101982 0)
(10.9188 0.112219 0)
(10.9259 0.128734 0)
(10.9597 0.140354 0)
(10.9701 0.162404 0)
(10.999 0.172621 0)
(11.0179 0.203034 0)
(11.0368 0.213059 0)
(11.0692 0.24798 0)
(11.0758 0.264344 0)
(11.1232 0.300862 0)
(11.1172 0.322613 0)
(11.1816 0.367509 0)
(11.1601 0.389776 0)
(11.2473 0.444342 0)
(11.2047 0.474686 0)
(11.3189 0.531185 0)
(11.2574 0.575867 0)
(11.3893 0.639529 0)
(11.3228 0.694058 0)
(11.4614 0.767924 0)
(11.3934 0.846119 0)
(11.5381 0.918356 0)
(11.4733 1.03381 0)
(11.6088 1.11072 0)
(11.5627 1.26321 0)
(11.6752 1.35728 0)
(11.6515 1.54072 0)
(11.7294 1.68492 0)
(11.7299 1.87551 0)
(11.7669 2.08947 0)
(11.7692 2.31221 0)
(11.7762 2.55299 0)
(11.7418 2.85836 0)
(11.7251 3.11242 0)
(11.6218 3.44157 0)
(11.5671 3.82443 0)
(9.99909 -0.00383176 0)
(10.0048 -0.00647368 0)
(10.0083 -0.0133802 0)
(10.0215 -0.0160702 0)
(10.0303 -0.0210951 0)
(10.0499 -0.0229996 0)
(10.0623 -0.0260094 0)
(10.0868 -0.0267908 0)
(10.1004 -0.0285586 0)
(10.1289 -0.0288865 0)
(10.1416 -0.0295706 0)
(10.1727 -0.030555 0)
(10.1846 -0.0294315 0)
(10.217 -0.0321911 0)
(10.2288 -0.0289685 0)
(10.2615 -0.0333356 0)
(10.2746 -0.0284754 0)
(10.3075 -0.0329118 0)
(10.3218 -0.0280646 0)
(10.354 -0.0311892 0)
(10.3698 -0.0275302 0)
(10.4005 -0.0288832 0)
(10.4187 -0.0259194 0)
(10.447 -0.0265759 0)
(10.4675 -0.0228157 0)
(10.4942 -0.0241788 0)
(10.5154 -0.0184147 0)
(10.5419 -0.0208341 0)
(10.5629 -0.0132826 0)
(10.589 -0.0156842 0)
(10.6109 -0.00769054 0)
(10.6349 -0.00844212 0)
(10.6589 -0.0010613 0)
(10.6803 0.000297717 0)
(10.7058 0.00802791 0)
(10.726 0.00979993 0)
(10.7516 0.0204054 0)
(10.771 0.0208945 0)
(10.7973 0.0346659 0)
(10.8153 0.0365364 0)
(10.8417 0.0490829 0)
(10.8612 0.0584246 0)
(10.8834 0.0646084 0)
(10.9082 0.0847087 0)
(10.9252 0.0855768 0)
(10.9539 0.112347 0)
(10.9687 0.115003 0)
(11.0009 0.141945 0)
(11.0103 0.150845 0)
(11.0533 0.179479 0)
(11.0497 0.1891 0)
(11.1096 0.227953 0)
(11.0927 0.233144 0)
(11.167 0.282811 0)
(11.1407 0.290274 0)
(11.2276 0.343051 0)
(11.195 0.358794 0)
(11.2893 0.418025 0)
(11.2616 0.435591 0)
(11.351 0.507591 0)
(11.3381 0.533487 0)
(11.4211 0.605743 0)
(11.4205 0.656948 0)
(11.5002 0.726927 0)
(11.5106 0.802376 0)
(11.5933 0.878355 0)
(11.6001 0.984759 0)
(11.7038 1.06903 0)
(11.6947 1.20741 0)
(11.8179 1.31648 0)
(11.7949 1.49745 0)
(11.9324 1.61765 0)
(11.892 1.87381 0)
(12.0251 2.01945 0)
(11.9744 2.30806 0)
(12.0789 2.57603 0)
(11.9982 2.80838 0)
(12.0737 3.24442 0)
(11.922 3.47227 0)
(11.944 3.91379 0)
(9.9997 -0.00570271 0)
(10.0043 -0.0123755 0)
(10.01 -0.0220971 0)
(10.0217 -0.0289355 0)
(10.0343 -0.0349979 0)
(10.0515 -0.0407334 0)
(10.069 -0.0430501 0)
(10.0895 -0.0469932 0)
(10.109 -0.0475246 0)
(10.1319 -0.0500295 0)
(10.1511 -0.0500391 0)
(10.1763 -0.0520869 0)
(10.1941 -0.051388 0)
(10.2212 -0.0543024 0)
(10.2379 -0.0520075 0)
(10.2671 -0.0562367 0)
(10.2832 -0.0516128 0)
(10.3147 -0.0569357 0)
(10.3296 -0.0507145 0)
(10.3626 -0.0562441 0)
(10.3772 -0.0500159 0)
(10.41 -0.0539327 0)
(10.4264 -0.0493546 0)
(10.4566 -0.0503473 0)
(10.4763 -0.0480283 0)
(10.5032 -0.0462681 0)
(10.5259 -0.0449333 0)
(10.5504 -0.042262 0)
(10.575 -0.0393309 0)
(10.5975 -0.038264 0)
(10.6238 -0.0316347 0)
(10.6446 -0.0328409 0)
(10.6715 -0.0233942 0)
(10.6929 -0.0240372 0)
(10.7171 -0.0152352 0)
(10.7419 -0.0120168 0)
(10.7624 -0.00505051 0)
(10.7886 0.00118437 0)
(10.8103 0.00896572 0)
(10.8321 0.0161899 0)
(10.8597 0.0256536 0)
(10.8755 0.03545 0)
(10.9068 0.0442252 0)
(10.922 0.0589162 0)
(10.952 0.0671701 0)
(10.9692 0.0851547 0)
(10.999 0.0960958 0)
(11.0162 0.115243 0)
(11.0474 0.130505 0)
(11.0669 0.150567 0)
(11.0947 0.171411 0)
(11.1226 0.191833 0)
(11.1459 0.219591 0)
(11.1775 0.240821 0)
(11.2079 0.275919 0)
(11.2312 0.298087 0)
(11.2784 0.343941 0)
(11.293 0.363766 0)
(11.3509 0.425377 0)
(11.3668 0.444072 0)
(11.4307 0.518543 0)
(11.4491 0.543416 0)
(11.5214 0.631156 0)
(11.5448 0.663049 0)
(11.6193 0.767596 0)
(11.6603 0.813813 0)
(11.7237 0.939291 0)
(11.7978 0.995957 0)
(11.8367 1.16158 0)
(11.9518 1.24296 0)
(11.9626 1.41607 0)
(12.1139 1.60009 0)
(12.0935 1.7328 0)
(12.2721 2.04385 0)
(12.2157 2.20586 0)
(12.387 2.53438 0)
(12.319 2.88172 0)
(12.3907 3.12871 0)
(12.3636 3.66548 0)
(12.2617 3.93733 0)
(9.99964 -0.00767511 0)
(10.005 -0.0190797 0)
(10.0111 -0.0321555 0)
(10.0246 -0.0427205 0)
(10.0384 -0.0505868 0)
(10.0577 -0.0586968 0)
(10.0763 -0.0614853 0)
(10.0981 -0.0668223 0)
(10.1182 -0.0675133 0)
(10.1419 -0.0705552 0)
(10.1609 -0.0714154 0)
(10.1868 -0.0729964 0)
(10.2041 -0.0745159 0)
(10.232 -0.0755221 0)
(10.2485 -0.0766386 0)
(10.2784 -0.0775123 0)
(10.2946 -0.0771063 0)
(10.3266 -0.078373 0)
(10.3412 -0.0766104 0)
(10.3754 -0.0780082 0)
(10.3886 -0.0760887 0)
(10.4238 -0.0759758 0)
(10.4379 -0.0755804 0)
(10.4711 -0.0726197 0)
(10.4881 -0.0741664 0)
(10.5184 -0.0690466 0)
(10.5383 -0.0704247 0)
(10.5662 -0.065796 0)
(10.5882 -0.0641429 0)
(10.6136 -0.0618608 0)
(10.6385 -0.0568842 0)
(10.6604 -0.055078 0)
(10.6885 -0.0501332 0)
(10.7083 -0.044616 0)
(10.7361 -0.0426613 0)
(10.758 -0.0326487 0)
(10.7825 -0.0309933 0)
(10.8065 -0.0216785 0)
(10.8313 -0.0136496 0)
(10.8518 -0.00969788 0)
(10.8818 0.00549493 0)
(10.8978 0.00885992 0)
(10.9291 0.0227762 0)
(10.9481 0.0352291 0)
(10.9741 0.0418554 0)
(10.999 0.0634969 0)
(11.0237 0.0699686 0)
(11.0454 0.090557 0)
(11.0804 0.106849 0)
(11.0909 0.122413 0)
(11.1391 0.145824 0)
(11.1435 0.165158 0)
(11.1954 0.188755 0)
(11.2064 0.212319 0)
(11.2531 0.246217 0)
(11.2742 0.260572 0)
(11.3214 0.315364 0)
(11.3451 0.323505 0)
(11.3978 0.386288 0)
(11.4309 0.407729 0)
(11.4759 0.466818 0)
(11.5336 0.508268 0)
(11.5675 0.564941 0)
(11.6453 0.63181 0)
(11.6789 0.680657 0)
(11.7731 0.793168 0)
(11.8089 0.813233 0)
(11.9234 1.00405 0)
(11.956 0.994423 0)
(12.1033 1.23878 0)
(12.1235 1.28837 0)
(12.2987 1.49437 0)
(12.3236 1.71308 0)
(12.4786 1.84892 0)
(12.5538 2.22132 0)
(12.6326 2.41988 0)
(12.7179 2.80704 0)
(12.7822 3.20767 0)
(12.7228 3.57356 0)
(12.8225 4.12422 0)
(9.99874 -0.0102073 0)
(10.007 -0.0270733 0)
(10.0126 -0.0445199 0)
(10.0306 -0.0583048 0)
(10.0447 -0.0683809 0)
(10.0684 -0.0776013 0)
(10.0872 -0.0811203 0)
(10.1117 -0.0867983 0)
(10.1317 -0.087811 0)
(10.1563 -0.0913635 0)
(10.1758 -0.0925157 0)
(10.2008 -0.0948469 0)
(10.2203 -0.0969441 0)
(10.2452 -0.0977081 0)
(10.2667 -0.100536 0)
(10.2912 -0.0992531 0)
(10.3146 -0.101968 0)
(10.3393 -0.100375 0)
(10.3621 -0.10102 0)
(10.3887 -0.101737 0)
(10.4095 -0.0988864 0)
(10.4386 -0.101757 0)
(10.4578 -0.097419 0)
(10.4882 -0.098752 0)
(10.5066 -0.0971567 0)
(10.5382 -0.0933129 0)
(10.5557 -0.0958241 0)
(10.5878 -0.0881175 0)
(10.6062 -0.0903879 0)
(10.6349 -0.0848845 0)
(10.6598 -0.0808695 0)
(10.6793 -0.081189 0)
(10.7142 -0.0710278 0)
(10.7255 -0.0727067 0)
(10.7638 -0.0630836 0)
(10.7776 -0.0595636 0)
(10.8079 -0.0534489 0)
(10.8322 -0.0463377 0)
(10.8531 -0.0374628 0)
(10.8828 -0.0344944 0)
(10.9027 -0.0164951 0)
(10.9307 -0.0195095 0)
(10.9523 0.0047972 0)
(10.9817 0.00302994 0)
(10.9994 0.024452 0)
(11.0354 0.0332085 0)
(11.0482 0.0463193 0)
(11.0888 0.065238 0)
(11.1012 0.0788399 0)
(11.1431 0.0942212 0)
(11.1569 0.121229 0)
(11.2038 0.130863 0)
(11.2114 0.159956 0)
(11.2754 0.186341 0)
(11.2667 0.197723 0)
(11.3541 0.247206 0)
(11.3337 0.253085 0)
(11.4334 0.309383 0)
(11.4159 0.31687 0)
(11.5227 0.394113 0)
(11.5058 0.381518 0)
(11.6279 0.497119 0)
(11.6152 0.467943 0)
(11.7389 0.608748 0)
(11.7548 0.58842 0)
(11.8636 0.727675 0)
(11.9254 0.765388 0)
(12.0017 0.851372 0)
(12.1445 1.00136 0)
(12.1595 1.03233 0)
(12.3919 1.26146 0)
(12.3832 1.34617 0)
(12.6221 1.55839 0)
(12.6983 1.79398 0)
(12.8239 2.0143 0)
(13.0238 2.36212 0)
(13.0505 2.69789 0)
(13.2285 3.11841 0)
(13.2483 3.61366 0)
(13.2522 4.11621 0)
(9.99882 -0.0137962 0)
(10.0085 -0.0376103 0)
(10.0176 -0.0602323 0)
(10.0383 -0.0774061 0)
(10.058 -0.0890757 0)
(10.0823 -0.0989055 0)
(10.1068 -0.102449 0)
(10.1283 -0.108273 0)
(10.1544 -0.109146 0)
(10.1732 -0.113784 0)
(10.1997 -0.114323 0)
(10.2174 -0.119052 0)
(10.2451 -0.119047 0)
(10.2624 -0.122989 0)
(10.2924 -0.122699 0)
(10.3096 -0.124616 0)
(10.3407 -0.12454 0)
(10.3591 -0.12552 0)
(10.3878 -0.124079 0)
(10.4099 -0.126931 0)
(10.4348 -0.122151 0)
(10.4611 -0.127286 0)
(10.4828 -0.120782 0)
(10.5122 -0.124473 0)
(10.5309 -0.120722 0)
(10.5642 -0.118919 0)
(10.5786 -0.119593 0)
(10.6164 -0.113697 0)
(10.6276 -0.113975 0)
(10.6657 -0.11092 0)
(10.6806 -0.10379 0)
(10.7111 -0.107851 0)
(10.7358 -0.0935634 0)
(10.757 -0.0991745 0)
(10.7872 -0.0863782 0)
(10.8081 -0.0847241 0)
(10.8335 -0.078033 0)
(10.8609 -0.0703945 0)
(10.8818 -0.0623948 0)
(10.9089 -0.0587302 0)
(10.9347 -0.040641 0)
(10.9555 -0.0446532 0)
(10.9852 -0.0188474 0)
(11.0091 -0.0227224 0)
(11.0285 0.00063629 0)
(11.0709 0.00657342 0)
(11.0697 0.0227948 0)
(11.1342 0.0356635 0)
(11.1182 0.0562536 0)
(11.1908 0.0610666 0)
(11.1815 0.0973124 0)
(11.2434 0.0970338 0)
(11.2494 0.129679 0)
(11.3113 0.154613 0)
(11.3085 0.161287 0)
(11.3953 0.211692 0)
(11.3823 0.217495 0)
(11.4685 0.258584 0)
(11.4892 0.292031 0)
(11.5423 0.31607 0)
(11.6061 0.374424 0)
(11.6404 0.383408 0)
(11.7372 0.482905 0)
(11.7517 0.456115 0)
(11.8979 0.607597 0)
(11.8932 0.57496 0)
(12.0636 0.719904 0)
(12.1017 0.768117 0)
(12.2349 0.837644 0)
(12.366 1.00956 0)
(12.4629 1.04083 0)
(12.6556 1.26976 0)
(12.7794 1.38028 0)
(12.9579 1.61332 0)
(13.1857 1.87181 0)
(13.2829 2.15965 0)
(13.5648 2.55852 0)
(13.6444 2.99921 0)
(13.8153 3.55264 0)
(13.8823 4.13751 0)
(10.0001 -0.0190102 0)
(10.0101 -0.0523841 0)
(10.0279 -0.0799842 0)
(10.0505 -0.101265 0)
(10.0802 -0.112994 0)
(10.1037 -0.123707 0)
(10.1354 -0.126517 0)
(10.1535 -0.132917 0)
(10.1841 -0.134305 0)
(10.1995 -0.140075 0)
(10.2284 -0.141105 0)
(10.2451 -0.147212 0)
(10.2729 -0.14629 0)
(10.2924 -0.151645 0)
(10.3195 -0.150213 0)
(10.341 -0.152522 0)
(10.3673 -0.153176 0)
(10.3902 -0.152391 0)
(10.4146 -0.153619 0)
(10.439 -0.153839 0)
(10.462 -0.151014 0)
(10.4881 -0.155607 0)
(10.5089 -0.148131 0)
(10.5386 -0.153773 0)
(10.5529 -0.14806 0)
(10.592 -0.146589 0)
(10.594 -0.149602 0)
(10.6461 -0.137626 0)
(10.6367 -0.147383 0)
(10.6943 -0.131899 0)
(10.6867 -0.138493 0)
(10.7337 -0.128345 0)
(10.7423 -0.127489 0)
(10.7708 -0.120145 0)
(10.7941 -0.119751 0)
(10.8144 -0.10504 0)
(10.8373 -0.112559 0)
(10.8627 -0.0882651 0)
(10.8798 -0.0998299 0)
(10.9066 -0.0732893 0)
(10.9288 -0.0804866 0)
(10.9452 -0.0591134 0)
(10.9804 -0.05599 0)
(10.9864 -0.0430468 0)
(11.0283 -0.0315228 0)
(11.0369 -0.0164851 0)
(11.0696 -0.0152882 0)
(11.0968 0.0220395 0)
(11.1137 0.00416195 0)
(11.1514 0.0517402 0)
(11.1807 0.048089 0)
(11.1916 0.0684914 0)
(11.2644 0.0984192 0)
(11.2469 0.104109 0)
(11.333 0.135095 0)
(11.3322 0.155431 0)
(11.4088 0.183496 0)
(11.4119 0.198651 0)
(11.5224 0.250214 0)
(11.4957 0.252426 0)
(11.6404 0.314289 0)
(11.6245 0.332791 0)
(11.7571 0.373415 0)
(11.7857 0.447156 0)
(11.9002 0.433756 0)
(11.9754 0.572718 0)
(12.0891 0.554501 0)
(12.1766 0.676576 0)
(12.357 0.744333 0)
(12.4017 0.802268 0)
(12.6975 0.979375 0)
(12.7088 1.01819 0)
(13.0603 1.23536 0)
(13.1814 1.38203 0)
(13.4541 1.63135 0)
(13.7319 1.89835 0)
(13.9449 2.30657 0)
(14.2661 2.78037 0)
(14.371 3.34345 0)
(14.6711 4.17782 0)
(10.0003 -0.026394 0)
(10.0169 -0.070356 0)
(10.0434 -0.0983311 0)
(10.0749 -0.118696 0)