/*--------------------------------*- C++ -*----------------------------------*\
| =========                 |                                                 |
| \\      /  F ield         | OpenFOAM: The Open Source CFD Toolbox           |
|  \\    /   O peration     | Version:  2306                                  |
|   \\  /    A nd           | Website:  www.openfoam.com                      |
|    \\/     M anipulation  |                                                 |
\*---------------------------------------------------------------------------*/
FoamFile
{
    version     2.0;
    format      ascii;
    arch        "LSB;label=32;scalar=64";
    class       volScalarField;
    location    "0.35";
    object      p;
}
// * * * * * * * * * * * * * * * * * * * * * * * * * * * * * * * * * * * * * //

dimensions      [0 2 -2 0 0 0 0];

internalField   nonuniform List<scalar> 
4400
(
383.222
382.206
381.299
380.627
380.178
379.871
379.626
379.397
379.164
378.923
378.678
378.43
378.183
377.937
377.693
377.449
377.206
376.963
376.719
376.475
376.23
375.986
375.742
375.498
375.256
375.016
374.777
374.541
374.308
374.078
373.852
373.631
373.416
373.206
373.003
372.807
372.619
372.44
372.269
372.11
371.96
371.822
371.696
371.582
371.481
371.393
371.319
371.257
371.209
371.174
371.15
371.138
371.134
371.137
371.143
371.149
371.15
371.14
371.113
371.061
370.979
370.862
370.708
370.533
370.383
370.305
370.371
370.659
371.199
371.961
372.853
373.59
373.907
373.749
373.687
373.646
374.085
374.282
374.029
373.826
381.76
381.417
380.985
380.544
380.152
379.827
379.559
379.324
379.1
378.875
378.645
378.408
378.167
377.924
377.681
377.438
377.195
376.953
376.71
376.467
376.224
375.981
375.738
375.495
375.254
375.014
374.776
374.54
374.307
374.077
373.852
373.63
373.415
373.205
373.001
372.805
372.615
372.435
372.263
372.102
371.949
371.809
371.68
371.563
371.459
371.366
371.288
371.222
371.17
371.129
371.102
371.083
371.076
371.073
371.076
371.078
371.076
371.064
371.035
370.983
370.901
370.787
370.638
370.47
370.319
370.247
370.335
370.674
371.31
372.248
373.367
374.323
374.403
373.635
373.196
373.031
373.276
373.937
374.181
374.05
381.214
381.048
380.791
380.473
380.139
379.824
379.543
379.293
379.064
378.843
378.619
378.39
378.155
377.916
377.674
377.431
377.189
376.947
376.704
376.462
376.22
375.978
375.735
375.494
375.252
375.013
374.775
374.539
374.306
374.076
373.85
373.628
373.411
373.199
372.994
372.795
372.603
372.419
372.242
372.076
371.917
371.77
371.632
371.506
371.389
371.285
371.192
371.11
371.039
370.98
370.93
370.891
370.857
370.83
370.805
370.781
370.753
370.715
370.667
370.6
370.518
370.414
370.303
370.194
370.131
370.167
370.359
370.739
371.317
372.065
372.858
373.451
373.658
373.524
373.615
373.922
374.487
375.33
374.702
373.747
380.799
380.699
380.525
380.292
380.026
379.754
379.491
379.246
379.016
378.795
378.576
378.353
378.126
377.892
377.655
377.415
377.175
376.934
376.693
376.451
376.21
375.969
375.727
375.487
375.246
375.007
374.769
374.533
374.3
374.069
373.842
373.619
373.4
373.186
372.978
372.774
372.578
372.388
372.206
372.032
371.866
371.708
371.559
371.42
371.289
371.169
371.058
370.957
370.865
370.781
370.706
370.637
370.574
370.513
370.456
370.396
370.334
370.265
370.187
370.1
370.005
369.905
369.814
369.744
369.73
369.796
369.978
370.278
370.702
371.219
371.778
372.276
372.666
372.937
373.153
373.359
373.558
373.789
373.973
374.429
380.499
380.43
380.305
380.131
379.919
379.686
379.448
379.214
378.987
378.766
378.547
378.327
378.104
377.875
377.642
377.405
377.166
376.926
376.686
376.445
376.204
375.963
375.721
375.481
375.24
375.001
374.762
374.526
374.291
374.06
373.831
373.606
373.384
373.167
372.955
372.747
372.546
372.35
372.161
371.979
371.804
371.635
371.476
371.322
371.178
371.04
370.911
370.789
370.675
370.566
370.464
370.366
370.271
370.178
370.084
369.989
369.889
369.786
369.675
369.561
369.444
369.33
369.231
369.157
369.128
369.157
369.265
369.448
369.725
370.062
370.465
370.858
371.252
371.553
371.815
372.016
372.289
372.689
373.186
373.531
380.281
380.228
380.132
379.993
379.818
379.618
379.402
379.181
378.96
378.74
378.522
378.303
378.082
377.856
377.626
377.392
377.155
376.917
376.677
376.436
376.196
375.954
375.713
375.472
375.231
374.991
374.752
374.515
374.279
374.046
373.814
373.587
373.362
373.142
372.925
372.713
372.506
372.304
372.108
371.917
371.733
371.553
371.383
371.215
371.057
370.903
370.755
370.614
370.475
370.345
370.213
370.089
369.959
369.838
369.706
369.578
369.441
369.303
369.156
369.011
368.862
368.719
368.589
368.477
368.401
368.357
368.378
368.437
368.583
368.757
369.009
369.254
369.532
369.764
369.996
370.223
370.518
370.877
371.228
371.432
380.122
380.079
379.999
379.881
379.731
379.554
379.357
379.149
378.935
378.719
378.502
378.283
378.063
377.839
377.611
377.379
377.144
376.907
376.668
376.427
376.187
375.945
375.704
375.462
375.22
374.979
374.74
374.5
374.264
374.028
373.795
373.564
373.336
373.112
372.891
372.674
372.461
372.253
372.048
371.851
371.654
371.467
371.282
371.102
370.929
370.759
370.593
370.431
370.273
370.116
369.962
369.807
369.651
369.495
369.331
369.169
368.995
368.824
368.638
368.458
368.269
368.084
367.91
367.74
367.6
367.472
367.394
367.339
367.34
367.373
367.45
367.547
367.665
367.789
367.924
368.087
368.278
368.508
368.731
368.939
380.009
379.973
379.902
379.797
379.663
379.501
379.319
379.122
378.914
378.701
378.486
378.268
378.048
377.824
377.598
377.368
377.134
376.898
376.659
376.419
376.178
375.935
375.693
375.451
375.208
374.966
374.725
374.484
374.245
374.007
373.771
373.538
373.305
373.078
372.851
372.63
372.41
372.196
371.982
371.778
371.571
371.374
371.176
370.984
370.797
370.609
370.428
370.246
370.068
369.886
369.709
369.525
369.344
369.153
368.963
368.761
368.56
368.343
368.126
367.899
367.669
367.435
367.201
366.972
366.748
366.541
366.349
366.18
366.036
365.922
365.824
365.762
365.707
365.688
365.67
365.709
365.741
365.863
365.977
366.192
379.937
379.904
379.839
379.741
379.616
379.465
379.292
379.101
378.899
378.689
378.475
378.257
378.037
377.813
377.588
377.358
377.126
376.889
376.651
376.41
376.168
375.926
375.682
375.439
375.194
374.952
374.707
374.466
374.224
373.983
373.744
373.507
373.271
373.039
372.808
372.58
372.356
372.132
371.915
371.698
371.484
371.275
371.066
370.862
370.66
370.458
370.258
370.06
369.859
369.659
369.455
369.248
369.037
368.819
368.597
368.362
368.126
367.871
367.616
367.342
367.065
366.774
366.481
366.178
365.874
365.571
365.27
364.976
364.688
364.418
364.145
363.915
363.657
363.483
363.261
363.146
363.011
362.982
363.032
363.198
379.902
379.87
379.807
379.713
379.592
379.446
379.277
379.089
378.889
378.681
378.468
378.25
378.03
377.806
377.58
377.351
377.118
376.882
376.643
376.402
376.159
375.915
375.67
375.426
375.179
374.936
374.688
374.446
374.2
373.957
373.715
373.473
373.235
372.997
372.762
372.527
372.298
372.065
371.842
371.615
371.393
371.174
370.953
370.738
370.52
370.304
370.089
369.871
369.652
369.431
369.203
368.974
368.735
368.492
368.236
367.973
367.697
367.407
367.109
366.788
366.465
366.108
365.758
365.372
364.988
364.584
364.165
363.749
363.304
362.879
362.42
361.997
361.551
361.137
360.745
360.389
360.098
359.891
359.819
359.931
379.902
379.869
379.805
379.711
379.592
379.445
379.276
379.087
378.887
378.679
378.466
378.248
378.026
377.802
377.576
377.346
377.112
376.876
376.635
376.394
376.149
375.905
375.658
375.412
375.164
374.918
374.668
374.424
374.174
373.929
373.683
373.438
373.195
372.952
372.711
372.471
372.235
371.996
371.766
371.529
371.3
371.069
370.837
370.611
370.379
370.149
369.919
369.683
369.447
369.205
368.957
368.704
368.44
368.168
367.886
367.588
367.281
366.952
366.609
366.248
365.862
365.459
365.03
364.576
364.095
363.596
363.057
362.5
361.917
361.3
360.672
360.019
359.361
358.704
358.066
357.475
356.941
356.542
356.27
356.247
379.936
379.901
379.833
379.737
379.614
379.462
379.288
379.095
378.892
378.682
378.468
378.249
378.027
377.803
377.575
377.344
377.108
376.871
376.629
376.387
376.14
375.894
375.646
375.397
375.148
374.899
374.647
374.4
374.147
373.899
373.649
373.399
373.153
372.904
372.659
372.412
372.171
371.924
371.687
371.441
371.204
370.962
370.72
370.484
370.236
369.996
369.749
369.496
369.247
368.98
368.718
368.438
368.153
367.856
367.543
367.217
366.872
366.511
366.122
365.72
365.278
364.818
364.323
363.786
363.227
362.609
361.961
361.264
360.516
359.725
358.886
358.01
357.092
356.171
355.232
354.357
353.523
352.831
352.314
352.033
380.008
379.967
379.893
379.792
379.658
379.497
379.312
379.112
378.904
378.691
378.474
378.254
378.032
377.806
377.577
377.344
377.106
376.867
376.623
376.38
376.13
375.883
375.633
375.382
375.131
374.879
374.626
374.373
374.12
373.865
373.614
373.358
373.109
372.854
372.604
372.352
372.103
371.851
371.605
371.351
371.107
370.853
370.604
370.354
370.096
369.844
369.58
369.316
369.047
368.765
368.481
368.184
367.871
367.555
367.211
366.857
366.485
366.078
365.661
365.204
364.717
364.199
363.635
363.026
362.374
361.661
360.881
360.054
359.139
358.153
357.102
355.972
354.768
353.533
352.266
350.978
349.811
348.698
347.822
347.224
380.119
380.071
379.989
379.875
379.724
379.547
379.346
379.137
378.922
378.705
378.485
378.264
378.041
377.814
377.583
377.346
377.106
376.865
376.618
376.373
376.122
375.873
375.62
375.367
375.114
374.858
374.604
374.346
374.09
373.832
373.575
373.318
373.061
372.804
372.545
372.291
372.032
371.776
371.522
371.259
371.01
370.741
370.49
370.223
369.955
369.698
369.409
369.144
368.848
368.554
368.257
367.931
367.608
367.262
366.894
366.515
366.11
365.67
365.215
364.718
364.175
363.617
362.973
362.304
361.563
360.749
359.852
358.892
357.794
356.631
355.349
353.908
352.446
350.795
349.121
347.428
345.679
344.106
342.692
341.623
380.274
380.218
380.122
379.986
379.81
379.607
379.388
379.167
378.944
378.723
378.501
378.279
378.055
377.825
377.591
377.35
377.108
376.862
376.615
376.367
376.114
375.863
375.607
375.353
375.096
374.839
374.579
374.32
374.059
373.797
373.537
373.273
373.013
372.75
372.487
372.227
371.96
371.702
371.435
371.169
370.908
370.633
370.373
370.094
369.819
369.547
369.248
368.971
368.658
368.352
368.038
367.691
367.354
366.984
366.591
366.193
365.752
365.284
364.799
364.252
363.678
363.058
362.363
361.624
360.807
359.881
358.912
357.768
356.538
355.192
353.614
351.96
350.065
348.064
345.849
343.578
341.247
338.894
336.812
335.01
380.489
380.418
380.297
380.122
379.909
379.672
379.431
379.198
378.968
378.747
378.521
378.299
378.071
377.838
377.6
377.355
377.111
376.861
376.613
376.361
376.107
375.853
375.595
375.339
375.078
374.818
374.555
374.292
374.029
373.76
373.5
373.228
372.966
372.696
372.427
372.164
371.884
371.629
371.343
371.084
370.805
370.525
370.263
369.958
369.7
369.389
369.1
368.802
368.47
368.167
367.823
367.466
367.115
366.717
366.309
365.891
365.415
364.926
364.413
363.813
363.227
362.532
361.803
361.001
360.099
359.11
358.022
356.768
355.373
353.862
352.021
350.067
347.853
345.271
342.564
339.567
336.309
333.125
329.948
327.098
380.787
380.686
380.517
380.282
380.015
379.736
379.473
379.228
378.995
378.773
378.546
378.322
378.088
377.851
377.607
377.359
377.111
376.859
376.609
376.355
376.1
375.842
375.584
375.322
375.06
374.796
374.529
374.263
373.995
373.724
373.458
373.182
372.915
372.639
372.365
372.096
371.81
371.551
371.252
370.996
370.697
370.422
370.143
369.831
369.57
369.235
368.95
368.635
368.293
367.984
367.62
367.255
366.89
366.466
366.049
365.61
365.102
364.607
364.04
363.435
362.786
362.087
361.268
360.467
359.434
358.435
357.247
355.808
354.452
352.595
350.579
348.479
345.705
342.715
339.339
335.402
331.06
326.556
321.93
317.387
381.202
381.035
380.781
380.461
380.126
379.806
379.524
379.273
379.042
378.818
378.587
378.355
378.113
377.87
377.621
377.369
377.117
376.865
376.611
376.354
376.098
375.835
375.576
375.308
375.045
374.776
374.506
374.237
373.964
373.689
373.419
373.136
372.869
372.579
372.313
372.024
371.746
371.47
371.169
370.912
370.59
370.334
370.016
369.727
369.436
369.106
368.821
368.473
368.163
367.796
367.454
367.06
366.691
366.248
365.825
365.354
364.842
364.322
363.727
363.096
362.429
361.668
360.869
359.943
358.921
357.886
356.495
355.125
353.638
351.456
349.5
347.005
343.912
340.582
336.42
331.422
325.664
319.127
312.188
305.379
381.747
381.404
380.973
380.531
380.138
379.809
379.538
379.302
379.076
378.849
378.61
378.37
378.123
377.874
377.624
377.371
377.118
376.865
376.608
376.351
376.091
375.826
375.565
375.295
375.028
374.757
374.483
374.21
373.934
373.654
373.381
373.091
372.823
372.525
372.258
371.958
371.681
371.394
371.091
370.829
370.497
370.243
369.906
369.628
369.309
368.992
368.68
368.333
368.018
367.65
367.304
366.899
366.522
366.082
365.65
365.153
364.661
364.067
363.539
362.783
362.169
361.371
360.465
359.613
358.508
357.513
355.775
354.856
352.694
350.747
348.727
345.884
342.437
339.016
333.946
328.442
320.316
311.544
299.145
287.9
383.208
382.193
381.287
380.615
380.163
379.852
379.604
379.375
379.138
378.896
378.642
378.391
378.137
377.885
377.634
377.38
377.126
376.871
376.613
376.354
376.091
375.826
375.56
375.291
375.019
374.749
374.471
374.198
373.918
373.638
373.359
373.072
372.794
372.503
372.223
371.931
371.644
371.359
371.058
370.78
370.469
370.186
369.878
369.572
369.269
368.949
368.623
368.309
367.945
367.616
367.239
366.847
366.462
366.027
365.567
365.111
364.572
364.005
363.469
362.648
362.19
361.066
360.503
359.355
358.47
357.177
355.89
354.551
352.57
350.634
348.56
345.159
342.508
337.895
333.426
326.535
318.522
306.181
289.738
263.913
373.829
373.521
373.308
373.162
373.136
373.284
373.576
373.95
374.449
374.829
375.217
375.884
376.366
376.306
376.195
376.598
377.427
378.522
379.573
379.712
374.045
373.624
373.199
372.917
372.744
372.955
373.33
373.781
374.297
374.817
375.281
375.693
375.78
375.513
375.449
375.91
376.741
377.853
379.012
379.368
373.479
373.354
373.098
372.807
372.635
372.788
373.118
373.705
374.427
375.052
375.497
375.588
375.182
374.468
374.317
374.778
375.592
376.606
377.904
378.635
374.936
374.871
372.919
371.691
370.828
371.272
372.539
373.499
374.629
375.595
376.029
375.715
374.766
373.746
373.504
373.989
374.652
375.377
376.606
377.771
373.366
372.732
371.541
370.936
370.617
370.914
371.005
372.777
374.997
376.238
376.555
376.118
375.007
373.8
373.219
373.248
373.595
374.422
375.763
377.168
371.406
371.15
370.754
370.262
369.959
369.532
371.292
373.97
375.44
377.048
377.372
376.763
375.567
374.345
373.256
372.984
374.477
375.114
375.319
376.843
369.071
369.166
369.246
369.242
369.605
370.235
371.999
373.777
376.004
377.489
377.739
377.587
376.626
374.789
373.087
373.218
373.412
372.735
373.661
377.126
366.457
366.766
367.239
367.775
368.665
369.991
371.716
373.786
375.918
377.207
377.786
377.68
376.874
375.819
375.205
375.669
376.664
376.538
375.543
380.602
363.531
364.03
364.698
365.68
366.93
368.596
370.672
373.055
375.396
377.299
379.311
379.784
378.338
376.422
374.414
374.041
374.233
373.632
375.607
383.434
360.221
360.812
361.645
362.797
364.374
366.364
368.762
371.596
374.54
376.833
377.551
378.095
378.264
376.282
377.166
379.944
382.696
381.957
381.086
397.138
356.467
356.996
357.93
359.248
360.997
363.307
366.108
369.304
372.85
377.142
381.882
384.216
378.274
375.23
377.862
380.38
383.309
383.047
379.511
386.881
352.115
352.553
353.461
354.915
356.923
359.432
362.644
366.315
369.767
372.279
373.888
374.537
374.766
376.767
379.488
381.424
381.543
382.565
384.047
385.577
346.999
347.308
348.204
349.666
351.906
354.813
358.223
362.187
366.924
371.178
374.401
376.772
378.734
381.364
383.413
383.462
383.039
382.864
381.897
382.479
341.017
340.985
341.806
343.455
345.852
349.086
352.887
356.523
360.352
364.833
370.013
375.434
379.806
383.074
384.396
383.567
381.559
379.667
378.924
379.33
333.801
333.43
333.923
335.595
338.538
342.53
347.506
352.818
357.367
360.483
364.12
369.576
375.53
379.532
380.773
380.315
378.302
375.35
374.487
375.146
324.905
323.979
324.472
326.245
329.419
333.481
338.015
343.031
348.886
355.007
360.976
365.942
370.443
373.976
375.686
375.61
373.154
369.247
367.982
369.048
313.68
311.451
311.792
315.2
320.558
326.493
331.844
335.491
339.371
345.55
352.533
358.468
363.275
367.231
369.696
369.727
367.033
363.208
362.469
363.738
299.388
295.432
295.287
298.952
305.459
312.673
320.477
327.901
334.635
340.503
345.975
351.15
355.777
359.816
362.468
362.901
360.902
358.032
357.744
359.364
277.174
273.596
278.119
286.506
294.194
299.766
305.507
313.534
322.869
331.134
337.501
342.932
347.734
351.885
355.019
356.124
355.301
354.115
354.849
357.392
235.144
232.958
248.113
265.317
279.643
290.913
298.572
304.866
312.161
320.249
327.279
333.41
338.773
343.42
347.257
349.951
351.303
352.061
354.149
357.083
187.852
205.394
221.09
237.298
254.296
270.196
283.529
293.72
301.866
309.761
317.161
323.622
329.472
334.949
340.052
344.498
347.852
350.668
354.266
357.232
205.915
206.578
214.791
225.305
239.406
252.68
265.02
277.67
288.978
298.344
306.343
313.881
321.028
327.584
333.62
339.254
344.589
349.199
353.25
356.367
206.515
209.952
213.025
224.963
236.862
243.402
248.812
260.313
273.832
285.233
294.84
303.697
312.074
319.748
326.685
333.285
339.536
345.182
350.179
353.862
211.014
210.603
216.386
227.749
236.042
238.597
236.328
243.233
257.014
270.707
282.083
292.132
301.755
310.498
318.071
325.22
332.681
339.79
345.823
349.372
206.043
206.994
211.619
220.005
234.468
231.185
227.195
227.794
238.735
253.346
267.174
279.468
290.397
299.886
308.234
316.503
324.887
332.211
338.155
341.247
202.665
202.739
207.018
212.715
229.8
219.673
216.151
212.606
219.142
234.744
251.623
266.648
279.537
289.956
298.795
307.177
315.55
322.939
328.396
331.528
199.057
198.922
200.633
203.78
209.025
202.9
197.314
195.791
198.533
213.688
233.041
251.769
267.136
278.896
288.727
297.698
305.894
312.708
318.099
321.045
195.683
194.188
191.16
188.37
180.59
174.195
169.246
170.736
174.404
190.21
213.613
235.659
253.376
266.95
277.877
287.243
295.284
301.924
306.943
309.465
189.294
187.544
178.649
165.025
144.438
132.254
131.16
137.284
146.743
168.722
196.379
221.118
240.532
255.171
267.161
277.086
285.143
291.45
295.99
298.405
181.774
177.433
163.045
138.451
107.804
90.4469
93.731
104.164
118.576
146.673
180.246
208.593
228.824
244.445
257.324
267.521
275.346
281.384
285.906
287.969
174.424
167.876
149.376
117.172
81.1066
61.2883
65.9007
77.984
93.4404
127.748
166.877
196.925
218.656
235.226
248.337
258.612
266.502
272.467
276.503
278.448
171.55
163.596
143.3
106.432
68.3448
48.7011
52.6972
63.1788
80.5361
120.25
158.52
188.737
211.073
227.982
241.287
251.417
258.856
264.335
268.345
269.986
173.262
165.15
146.778
107.284
69.1263
49.8234
53.682
61.0895
81.9434
121.241
157.839
186.297
207.733
224.165
236.376
245.721
252.748
257.796
261.213
262.846
179.774
173.479
155.523
119.398
84.6005
67.7616
67.9
75.5483
95.664
131.088
163.935
189.093
209.153
223.185
233.94
242.404
248.441
252.55
255.758
257.093
192.494
188.497
171.495
140.468
111.249
96.4668
95.1182
102.744
123.542
152.496
177.043
198.426
213.985
225.024
233.718
240.338
245.393
248.978
251.422
252.597
207.784
204.863
190.885
167.306
145.325
132.918
131.745
138.728
158.564
178.746
196.912
211.999
221.46
229.448
235.425
240.155
243.886
246.445
248.275
249.127
222.765
220.75
211.269
195.77
181.774
173.538
173.222
180.805
194.462
207.085
218.981
225.717
231.324
235.91
238.79
241.348
243.327
244.728
245.879
246.395
235.975
234.603
228.801
221.593
216.09
213.995
215.68
221.851
229.387
235.271
238.586
239.32
241.389
242.032
242.555
243.346
243.781
244.099
244.267
244.352
245.085
244.071
241.298
240.87
243.694
248.78
254.052
256.996
259.154
258.335
254.39
251.569
249.629
247.438
246.188
245.152
244.079
243.309
242.919
242.682
249.778
248.368
248.246
252.688
262.326
273.3
282.686
284.367
280.469
274.807
266.737
260.709
255.164
251.494
248.507
245.824
243.869
242.63
241.543
241.102
250.503
247.659
248.655
258.212
273.803
288.956
299.737
301.967
293.481
284.902
275.074
266.487
258.376
253.973
249.49
245.987
243.236
241.185
239.852
239.135
248.589
244.675
246.969
260.118
279.139
296.552
307.048
308.902
299.902
288.014
278.493
268.512
260.267
254.089
248.87
244.632
241.491
239.312
237.754
237.036
246.552
243.669
244.236
259.979
278.997
295.602
304.955
306.476
298.032
286.259
276.778
266.123
257.849
251.644
246.729
242.633
239.401
237.012
235.351
234.476
243.725
243.337
244.928
255.917
270.265
283.402
291.526
293.486
288.015
278.118
269.765
260.219
252.407
246.496
242.011
238.437
235.655
233.649
232.218
231.585
244.615
241.711
241.808
245.369
251.516
259.021
265.305
268.351
267.367
262.341
256.869
249.864
243.757
239.003
235.435
232.835
230.964
229.595
228.601
228.028
253.882
242.272
232.916
226.434
224.076
226.619
230.707
234.702
238.085
238.628
237.701
234.92
231.784
229.199
227.379
225.914
224.775
224.01
223.543
223.503
252.222
234.802
215.752
201.752
194.338
193.316
194.933
199.068
205.238
210.316
213.979
215.783
216.56
216.989
217.352
217.632
217.785
218.088
218.277
218.45
231.066
213.62
192.241
175.964
166.595
162.988
162.599
166.147
172.688
180.012
187.642
194.083
199.035
202.976
206.146
208.411
209.975
211.152
212.208
212.744
201.541
186.893
167.403
152.104
142.456
137.328
135.443
137.736
142.902
150.729
160.996
171.371
180.271
187.621
193.565
197.957
201.183
203.747
205.357
206.406
171.462
159.699
143.685
130.959
122.387
116.582
113.848
114.381
117.144
124.223
135.781
149.169
161.525
172.04
180.687
187.408
192.384
196.234
199.096
200.584
143.69
134.556
122.026
112.059
104.892
99.3628
95.8959
94.7971
96.1392
102.219
113.63
128.559
143.572
156.874
168.034
176.888
183.729
188.992
192.546
194.267
119.124
112.018
102.374
94.4159
87.9829
82.3649
78.524
76.831
77.9284
83.6678
95.0704
110.897
127.572
143.036
156.47
167.217
175.592
182.018
186.351
189.181
97.9541
92.3018
84.5792
77.5395
70.8154
64.5674
60.45
59.2617
61.2729
67.3358
79.1154
95.6943
113.735
130.806
145.924
158.675
169.128
177.236
182.999
185.744
80.6121
75.5246
68.651
61.4227
53.4543
45.7903
41.427
41.1126
45.0081
52.7499
65.516
82.7512
102.161
120.893
137.74
152.436
164.586
173.451
179.543
183.37
67.3473
62.4583
55.3369
47.0159
37.2221
27.81
23.2498
24.0837
29.8246
39.5615
53.7863
71.8464
92.5206
112.537
130.664
147.286
161.035
171.725
179.915
184.759
58.2145
53.2037
45.8036
36.1128
23.9723
13.0776
7.8188
9.5357
17.1176
29.1665
44.6457
63.4958
85.5348
106.328
125.325
145.209
161.44
174.039
183.645
188.107
54.0685
48.4996
40.6104
29.8715
15.8736
3.57018
-2.10157
-0.293776
8.23491
22.0044
38.4727
58.0228
81.2462
103.103
123.85
144.038
161.281
175.556
187.16
195.183
55.7778
49.3273
40.5866
29.2919
13.8817
0.129164
-5.70889
-3.97911
4.80223
19.3276
36.5537
56.4577
79.1946
101.528
122.863
143.769
164.125
182.81
198.529
207.081
62.1735
55.864
46.9033
34.5358
18.11
4.03709
-2.3943
-1.34047
6.9901
21.2852
38.6825
58.4738
80.544
102.993
125.223
147.351
169.014
189.515
208.244
220.158
73.1872
67.3305
58.6573
45.6026
28.7613
14.6747
7.61439
7.61424
14.7124
27.9631
44.5992
63.8584
85.145
106.705
128.203
149.813
171.422
193.825
217.527
238.615
90.1661
84.2791
75.1696
61.8631
44.9584
30.4199
22.9319
21.9395
27.6106
39.1453
54.2179
72.2274
91.9291
111.728
132.376
153.614
175.215
200.286
231.277
252.658
110.913
106.1
97.2306
84.001
67.2093
52.409
43.7576
41.4408
45.4093
54.7068
67.5514
83.3594
100.729
118.643
138.237
157.707
175.299
192.644
216.314
245.549
134.027
130.06
122.555
110.052
94.0335
79.1097
69.1526
65.3206
67.5037
74.1744
83.9218
96.5845
110.56
124.896
140.719
156.191
168.968
177.335
181.002
207.881
160.03
156.496
149.761
138.328
123.035
107.699
96.7477
91.4823
91.8069
95.6786
101.929
110.536
120.238
130.585
141.781
151.898
160.676
166.924
165.39
168.66
185.333
182.959
177.623
168.168
154.33
139.437
127.197
119.787
117.506
118.546
121.386
126.006
131.351
136.912
142.398
146.952
151.39
157.238
164.934
155.279
210.257
208.535
205.055
197.553
185.814
171.908
159.242
149.967
144.856
142.77
142.478
143.266
144.243
145.861
147.193
146.889
145.836
145.974
156.243
155.023
233.744
232.942
230.821
225.344
215.845
203.653
191.234
180.885
173.36
168.359
165.174
163.032
160.443
157.456
153.215
148.38
144.062
141.08
143.934
150.734
253.567
253.645
253.029
249.896
242.945
232.783
221.338
210.773
201.747
194.326
188.086
182.673
176.17
168.818
159.628
148.996
140.697
140.458
139.087
146.154
271.069
271.47
271.723
269.975
265.279
257.472
247.625
237.526
227.629
218.412
209.288
200.647
191.298
180.335
166.921
152.278
139.486
137.12
139.552
144.73
285.298
286.24
287.588
286.435
282.983
276.937
268.602
259.27
249.148
238.89
227.985
216.622
204.52
190.887
175.207
158.32
144.076
138.373
144.819
148.513
295.988
297.097
298.783
298.625
296.243
291.379
284.044
275.355
265.408
254.52
242.601
229.327
215.484
200.713
185.331
169.114
155.379
148.293
154.584
157.499
304.042
305.092
306.739
306.906
304.837
300.699
294.222
286.066
276.437
265.322
253.118
239.462
225.084
209.466
194.15
180.451
171.33
164.902
166.822
169.571
309.728
310.699
312.296
312.61
310.485
306.429
300.36
292.538
283.358
272.415
260.255
246.549
232.441
218.048
203.643
190.59
184.889
180.434
180.038
182.299
313.417
314.273
315.657
315.886
313.769
309.709
303.745
296.035
287.046
276.334
264.549
251.588
238.126
224.849
213.418
203.231
196.257
194.916
192.888
194.236
315.75
316.372
317.368
317.434
315.276
310.823
304.913
297.346
288.608
278.522
267.194
254.799
242.357
231.126
221.339
215.667
208.792
206.955
205.232
204.745
317.005
317.535
318.106
317.989
315.944
310.84
305.106
297.707
289.165
279.351
268.526
257.323
246.087
235.947
227.355
222.383
218.541
216.316
213.897
211.945
317.488
317.887
318.084
317.75
315.576
310.816
304.932
297.469
288.929
279.781
269.58
258.775
248.128
239.396
232.082
227.512
226.625
222.5
218.361
215.471
317.493
317.86
317.655
317.362
315.105
310.372
304.407
297.142
288.858
279.649
269.603
259.39
249.311
240.524
234.205
228.699
225.042
219.781
217.404
215.766
317.18
317.518
317.056
316.795
314.636
310.065
304.165
296.862
288.417
279.222
269.375
259.151
249.034
240.013
232.161
226.189
222.287
218.284
211.946
213.224
316.804
317.106
316.519
316.458
314.324
309.933
304.022
296.68
288.248
279.071
269.033
258.536
247.996
237.976
229.843
222.552
213.657
205.903
195.303
200.397
316.574
316.708
316.159
316.169
314.103
310.163
304.279
296.947
288.402
278.913
268.791
257.82
246.347
234.984
223.396
211.671
199.088
193.268
185.961
188.798
316.587
316.474
316.144
315.878
313.97
310.569
304.754
297.321
288.809
279.2
268.488
256.946
244.261
230.494
216.997
203.69
191.64
185.601
176.722
177.282
316.55
316.195
316.509
315.649
313.961
311.01
305.486
298.173
289.575
279.686
268.705
256.384
242.792
228.225
212.582
198.425
183.248
169.194
169.944
169.528
316.198
315.798
316.751
315.36
314.417
311.732
306.59
299.392
290.598
280.792
269.727
257.145
242.647
226.696
209.846
192.411
174.749
164.603
166.705
168.161
315.707
315.607
316.714
315.445
314.851
312.493
307.973
301.021
292.297
282.336
271.26
258.611
244.084
227.273
207.33
187.653
168.851
154.499
144.067
146.162
315.228
315.613
315.952
315.944
315.22
313.212
309.374
302.802
294.297
284.607
273.601
261.038
246.281
229.204
209.511
187.824
166.415
149.29
139.663
151.514
314.692
315.243
315.016
316.196
314.63
313.316
310.135
304.548
296.837
287.349
276.451
264.32
250.525
233.478
213.255
192.212
170.368
157.273
157.485
169.398
313.956
314.135
314.169
314.905
313.475
312.485
309.829
305.341
298.623
290.228
280.27
268.642
255.213
239.356
219.737
197.737
175.6
158.993
155.647
153.457
312.822
312.444
312.648
312.244
312.068
310.944
308.601
305.223
300.007
292.917
284.095
273.669
261.111
245.747
226.734
204.691
180.716
157.395
139.23
141.918
311.371
310.886
310.89
309.662
310.547
308.817
306.894
304.257
300.819
295.684
288.558
279.054
267.351
253.034
234.694
211.692
184.659
155.424
124.83
92.5244
309.892
309.503
308.916
308.254
308.232
306.304
304.874
303.434
301.572
298.329
293.348
286.008
275.238
261.161
243.036
220.09
188.96
149.079
105.159
9.59347
308.653
308.189
307.139
306.664
305.481
304.177
302.954
301.969
302.281
301.464
298.609
293.216
284.348
270.886
251.225
227.033
197.908
149.068
96.8708
31.6443
307.877
307.236
306.021
305.179
303.452
302.184
300.82
301.875
303.262
304.682
305.048
302.507
294.773
281.625
263.424
234.005
207.646
166.031
114.14
70.487
307.681
306.794
305.384
303.684
301.782
299.773
298.85
301.132
304.797
308.325
310.039
310.699
310.847
288.877
278.033
245.977
217.512
188.998
144.415
105.649
308.199
307.156
305.384
302.744
300.626
297.869
297.827
302.426
307.161
313.289
320.436
314.315
329.401
293.253
286.792
259.736
229.646
209.619
176.892
137.963
309.393
308.41
306.452
303.475
300.355
296.255
297.297
302.769
308.298
314.864
326.165
317.926
332.571
289.746
283.005
267.913
246.862
227.712
201.732
166.28
310.875
310.097
308.545
306.212
303.218
300.106
301.372
307.12
312.663
319.842
329.198
312.345
287.327
278.675
277.065
281.173
269.073
246.677
220.773
189.183
312.459
311.975
310.994
309.6
307.735
307.145
310.108
313.734
310.385
330.794
313.858
296.067
285.017
308.899
309.975
302.732
286.625
262.975
236.28
206.476
312.995
312.077
311.404
310.792
309.93
309.101
306.761
301.126
302.45
334.763
273.436
316.183
319.257
340.061
323.945
307.122
292.001
271.784
245.811
216.202
315.557
314.17
312.913
312.015
311.615
312.226
314.162
315.499
305.849
350.281
315.743
378.212
344.641
349.367
325.246
306.549
293.55
275.151
249.471
220.309
-128.193
-74.1055
-116.448
-137.985
-140.504
-106.663
-101.585
-118.028
-144.685
-171.278
-199.035
-227.883
-256.933
-283.09
-303.129
-314.398
-316.661
-310.25
-296.281
-274.405
-245.782
-214.727
-179.187
-138.381
-101.895
-67.4984
-35.6425
-10.9023
8.83152
22.3045
29.7988
32.4507
30.4046
24.9223
15.8501
1.99452
-15.6621
-35.0764
-54.1608
-69.9357
-79.4105
-80.5002
-75.4783
-64.3849
-48.1758
-30.0905
-10.9697
6.19686
20.9327
31.7691
39.4301
44.1969
46.4284
47.1822
46.6284
45.3018
43.5935
42.0121
40.3903
38.8152
37.0168
34.9061
32.213
29.5139
27.6705
26.7387
26.6821
26.851
26.6095
26.6618
24.3507
23.1518
19.8798
16.9373
14.1162
10.6283