/*--------------------------------*- C++ -*----------------------------------*\
| =========                 |                                                 |
| \\      /  F ield         | OpenFOAM: The Open Source CFD Toolbox           |
|  \\    /   O peration     | Version:  2306                                  |
|   \\  /    A nd           | Website:  www.openfoam.com                      |
|    \\/     M anipulation  |                                                 |
\*---------------------------------------------------------------------------*/
FoamFile
{
    version     2.0;
    format      ascii;
    arch        "LSB;label=32;scalar=64";
    class       surfaceScalarField;
    location    "0.35";
    object      phi;
}
// * * * * * * * * * * * * * * * * * * * * * * * * * * * * * * * * * * * * * //

dimensions      [0 3 -1 0 0 0 0];

oriented        oriented;

internalField   nonuniform List<scalar> 
8520
(
0.00992785
7.21498e-05
0.00978962
0.00013823
0.00962952
0.000160102
0.00946826
0.000161259
0.00930945
0.000158812
0.00914915
0.000160301
0.00898638
0.00016277
0.00882095
0.000165428
0.0086537
0.000167246
0.00848561
0.00016809
0.0083179
0.000167708
0.00815107
0.000166834
0.00798558
0.000165491
0.00782133
0.000164252
0.00765853
0.000162792
0.00749709
0.000161447
0.0073372
0.000159889
0.00717885
0.000158348
0.0070222
0.000156648
0.00686736
0.000154843
0.00671431
0.000153054
0.00656331
0.000150998
0.00641419
0.000149122
0.00626728
0.000146903
0.00612235
0.000144934
0.00597969
0.000142661
0.00583914
0.000140553
0.00570084
0.000138299
0.00556476
0.000136081
0.00543083
0.000133923
0.00529929
0.000131542
0.00516969
0.000129598
0.00504248
0.000127211
0.00491694
0.000125543
0.00479363
0.000123305
0.00467176
0.000121871
0.00455173
0.000120033
0.00443281
0.000118918
0.00431516
0.000117654
0.00419813
0.00011703
0.00408162
0.000116508
0.00396512
0.000116501
0.00384824
0.000116882
0.00373047
0.000117769
0.00361131
0.000119156
0.00348994
0.000121376
0.00336605
0.000123887
0.00323826
0.000127788
0.00310653
0.000131735
0.00296902
0.000137505
0.00282573
0.000143286
0.00267466
0.000151077
0.00251564
0.000159017
0.0023467
0.000168935
0.00216751
0.000179193
0.00197632
0.000191192
0.0017728
0.000203514
0.00155554
0.000217266
0.00132483
0.000230712
0.00107969
0.000245135
0.000822027
0.000257665
0.000552327
0.0002697
0.000277452
0.000274875
8.90248e-06
0.000268549
-0.000235598
0.0002445
-0.000445859
0.000210261
-0.000595997
0.000150138
-0.000671402
7.5405e-05
-0.000650075
-2.13261e-05
-0.000527256
-0.00012282
-0.000295962
-0.000231293
-1.38291e-05
-0.000282133
0.00022602
-0.000239849
0.000338637
-0.000112617
7.40774e-05
0.000264559
-0.000394722
0.0004688
-0.000253708
-0.000141015
0.000145054
-0.000398762
0.000193168
-4.81134e-05
0.000192974
1.9317e-07
0.0100357
3.64728e-05
0.0100798
9.40711e-05
0.0101108
0.000129138
0.0101272
0.000144858
0.0101357
0.000150263
0.0101431
0.000152992
0.0101494
0.000156473
0.0101531
0.000161635
0.0101537
0.000166714
0.0101502
0.000171603
0.0101431
0.000174819
0.0101323
0.000177572
0.0101189
0.000178919
0.0101027
0.000180436
0.0100844
0.000181087
0.0100637
0.000182189
0.0100409
0.000182628
0.0100159
0.000183406
0.00998884
0.000183678
0.00995971
0.00018398
0.00992859
0.000184174
0.00989567
0.000183917
0.00986071
0.000184082
0.00982424
0.000183373
0.00978568
0.000183497
0.00974582
0.000182515
0.00970384
0.000182532
0.00966072
0.000181417
0.00961549
0.000181315
0.00956913
0.000180286
0.00952075
0.000179921
0.00947102
0.000179326
0.00941953
0.000178702
0.00936637
0.000178705
0.00931154
0.000178133
0.00925484
0.000178573
0.00919625
0.00017862
0.00913573
0.000179434
0.00907287
0.000180516
0.00900798
0.000181924
0.00893991
0.000184574
0.00886989
0.000186527
0.00879561
0.000191158
0.00871929
0.000194092
0.0086376
0.00020084
0.00855317
0.000205805
0.00846258
0.000214477
0.00836778
0.000222591
0.00826616
0.000233353
0.0081583
0.000245363
0.00804281
0.00025878
0.00791865
0.000275238
0.0077857
0.000291965
0.0076414
0.000313242
0.00748658
0.000334006
0.00731774
0.000360035
0.00713601
0.000385245
0.00693778
0.00041549
0.00672406
0.000444437
0.00649203
0.000477169
0.00624261
0.000507082
0.00597478
0.000537524
0.00568818
0.000561484
0.00537876
0.000577964
0.00505039
0.000572868
0.00469317
0.00056748
0.00429474
0.000548575
0.00384433
0.00052581
0.00332237
0.00050064
0.00270444
0.000495109
0.00194549
0.000527657
0.00107641
0.000586948
0.000230657
0.000605901
-0.000343867
0.000461907
-0.000494552
0.000415244
-0.000302011
0.000276258
-0.000289014
-0.000154012
-0.000337937
-0.000349839
-0.000256835
-0.000129215
0.00021512
-0.000278981
0.0100141
2.23449e-05
0.0100441
6.41391e-05
0.0100777
9.54783e-05
0.0101074
0.000115215
0.0101313
0.000126328
0.0101522
0.000132063
0.010173
0.000135721
0.010195
0.000139609
0.0102179
0.000143808
0.0102408
0.000148713
0.0102631
0.000152501
0.0102842
0.000156468
0.0103045
0.000158641
0.0103236
0.000161334
0.0103423
0.000162351
0.0103601
0.000164473
0.0103776
0.000165089
0.0103941
0.000166943
0.0104102
0.000167533
0.0104252
0.000168935
0.0104397
0.000169747
0.0104532
0.000170426
0.0104656
0.000171597
0.0104774
0.000171603
0.0104878
0.000173084
0.0104977
0.000172663
0.0105059
0.000174288
0.0105136
0.000173736
0.0105196
0.000175338
0.0105248
0.000175079
0.0105284
0.000176308
0.0105308
0.000176963
0.0105319
0.000177541
0.0105311
0.000179508
0.0105296
0.000179622
0.0105254
0.000182839
0.0105209
0.000183112
0.0105128
0.000187464
0.0105048
0.00018855
0.0104928
0.000193943
0.0104807
0.000196712
0.0104644
0.000202775
0.0104472
0.000208322
0.0104263
0.000215029
0.0104033
0.000223891
0.0103768
0.000232249
0.010347
0.000244287
0.0103139
0.000255665
0.0102762
0.000271091
0.0102352
0.000286366
0.010188
0.000305998
0.0101374
0.000325805
0.0100789
0.00035051
0.0100166
0.000375508
0.00994459
0.000406006
0.00986791
0.000436714
0.00978007
0.00047309
0.00968574
0.000509814
0.0095793
0.000550886
0.00946389
0.00059257
0.00933517
0.00063581
0.00919433
0.000678359
0.00903714
0.000718677
0.0088606
0.0007545
0.00865074
0.000782731
0.0084078
0.000810416
0.00812112
0.000835255
0.00778484
0.000862092
0.00739457
0.000890914
0.00695083
0.000938851
0.00647608
0.0010024
0.00598293
0.0010801
0.00543727
0.00115156
0.00471291
0.00118627
0.0039403
0.00118785
0.00306608
0.00115048
0.00187716
0.00103491
0.000558906
0.000968411
-0.000287425
0.000717115
0.000483455
-0.00055576
0.0100069
1.54257e-05
0.0100268
4.42956e-05
0.0100518
7.04415e-05
0.010077
8.99727e-05
0.0101002
0.000103162
0.0101224
0.00010991
0.010143
0.000115085
0.0101643
0.000118283
0.0101863
0.000121859
0.0102096
0.000125404
0.0102331
0.000128942
0.0102569
0.000132668
0.0102805
0.000135055
0.0103038
0.000138094
0.0103271
0.000139052
0.0103499
0.000141685
0.0103732
0.000141746
0.0103958
0.000144359
0.0104192
0.000144095
0.0104416
0.000146578
0.0104648
0.000146502
0.0104869
0.000148358
0.0105096
0.000148913
0.0105313
0.000149904
0.0105531
0.000151223
0.0105743
0.000151451
0.0105952
0.000153434
0.0106157
0.000153208
0.0106354
0.000155675
0.010655
0.000155462
0.0106733
0.000157996
0.0106917
0.000158594
0.0107086
0.000160657
0.0107253
0.000162762
0.0107407
0.000164256
0.0107555
0.000168067
0.0107691
0.000169444
0.0107816
0.000174998
0.0107934
0.000176745
0.0108032
0.000184104
0.0108129
0.000187004
0.0108201
0.000195663
0.010827
0.000201418
0.0108315
0.000210474
0.0108348
0.000220633
0.0108367
0.000230278
0.0108359
0.000245104
0.0108347
0.000256849
0.0108298
0.000276055
0.0108246
0.000291526
0.0108154
0.000315218
0.0108055
0.000335721
0.0107917
0.000364315
0.0107764
0.000390833
0.0107573
0.000425092
0.0107361
0.000457928
0.0107107
0.000498452
0.0106827
0.000537845
0.01065
0.000583541
0.0106128
0.000629821
0.0105705
0.000678046
0.0105189
0.000729956
0.0104599
0.00077768
0.0103812
0.00083322
0.0102852
0.000878734
0.0101578
0.000937861
0.0100094
0.000983652
0.00982043
0.00105102
0.00960305
0.00110829
0.00934721
0.00119469
0.00907339
0.00127622
0.00876239
0.0013911
0.00841088
0.00150307
0.00796684
0.0016303
0.00745965
0.00169504
0.00684839
0.00176174
0.00614469
0.00173862
0.00536413
0.00174897
0.00429954
0.00178171
0.00174592
0.00303708
0.0100044
1.10395e-05
0.0100166
3.20977e-05
0.010035
5.20052e-05
0.0100563
6.87302e-05
0.010078
8.1433e-05
0.0100989
8.89913e-05
0.0101192
9.48164e-05
0.0101397
9.77304e-05
0.0101606
0.000101007
0.0101826
0.000103375
0.010205
0.000106585
0.0102282
0.000109475
0.0102514
0.000111866
0.0102747
0.000114705
0.0102981
0.000115714
0.0103212
0.00011853
0.0103448
0.000118177
0.0103678
0.00012135
0.0103918
0.000120123
0.0104147
0.000123705
0.0104389
0.000122249
0.0104616
0.000125636
0.0104858
0.000124765
0.0105084
0.00012727
0.0105321
0.000127583
0.0105547
0.000128829
0.0105775
0.000130616
0.0106001
0.000130609
0.0106218
0.000133962
0.0106444
0.000132913
0.0106647
0.000137642
0.010687
0.000136281
0.010706
0.000141701
0.0107276
0.000141094
0.0107453
0.000146581
0.0107659
0.000147496
0.0107823
0.000153016
0.0108014
0.000155869
0.0108167
0.000161451
0.0108339
0.000166911
0.0108484
0.000172557
0.0108631
0.000180988
0.0108767
0.00018775
0.0108889
0.000198341
0.0109012
0.000208289
0.0109113
0.000220215
0.0109217
0.000234676
0.0109299
0.000248601
0.0109383
0.000267655
0.0109447
0.000285117
0.0109513
0.000308711
0.0109558
0.000331161
0.0109607
0.000359396
0.0109634
0.000388209
0.0109672
0.000421288
0.0109679
0.000457157
0.0109706
0.000495818
0.0109699
0.000538475
0.0109704
0.000583107
0.0109678
0.00063244
0.0109636
0.000682226
0.0109551
0.000738477
0.01094
0.000792773
0.0109171
0.000856057
0.0108809
0.000915003
0.0108329
0.000985795
0.0107649
0.00105169
0.0106803
0.0011356
0.0105726
0.00121595
0.0104457
0.00132163
0.0102965
0.00142544
0.0101223
0.00156533
0.00992909
0.00169624
0.00970569
0.0018537
0.00943028
0.00197045
0.00908116
0.00211086
0.00863563
0.00218415
0.0080526
0.00233199
0.00741677
0.00241754
0.00255085
0.00661184
0.0100032
7.81125e-06
0.0100117
2.36501e-05
0.0100258
3.79079e-05
0.010043
5.15093e-05
0.0100626
6.18061e-05
0.0100823
6.93099e-05
0.0101025
7.46652e-05
0.0101224
7.77435e-05
0.0101427
8.07499e-05
0.0101637
8.23573e-05
0.0101852
8.50691e-05
0.0102078
8.69177e-05
0.0102302
8.94431e-05
0.0102535
9.13889e-05
0.0102762
9.30262e-05
0.0102998
9.49692e-05
0.0103226
9.53875e-05
0.0103462
9.77153e-05
0.0103692
9.70843e-05
0.0103928
0.00010011
0.0104162
9.88696e-05
0.0104396
0.000102267
0.0104632
0.000101186
0.0104862
0.000104234
0.0105097
0.000104043
0.0105324
0.000106137
0.0105557
0.000107381
0.010578
0.000108259
0.0106007
0.000111303
0.0106227
0.000110876
0.0106445
0.000115863
0.0106662
0.000114587
0.0106869
0.000120958
0.010708
0.000119986
0.0107278
0.000126814
0.010748
0.000127326
0.0107668
0.000134197
0.0107858
0.00013684
0.0108037
0.00014355
0.0108212
0.000149414
0.0108386
0.00015513
0.0108538
0.000165861
0.0108714
0.000170123
0.0108836
0.000186091
0.0109014
0.000190514
0.0109114
0.000210279
0.0109284
0.000217614
0.0109371
0.000239875
0.0109527
0.000252095
0.0109611
0.000276675
0.0109748
0.000295012
0.0109838
0.000322166
0.0109955
0.000347706
0.0110058
0.000377894
0.0110159
0.000411279
0.0110277
0.000445287
0.0110367
0.000486831
0.0110501
0.000525129
0.0110577
0.000575474
0.0110722
0.000617937
0.0110761
0.000678279
0.0110894
0.000725197
0.0110862
0.000795963
0.0110932
0.00084907
0.0110789
0.000929314
0.0110719
0.000992848
0.0110402
0.00108333
0.011011
0.00116484
0.0109577
0.00126928
0.0109007
0.00137858
0.0108247
0.00150145
0.0107412
0.00164882
0.01065
0.00178747
0.0105327
0.001971
0.010398
0.00210512
0.0101897
0.00231911
0.00994622
0.00242766
0.00959853
0.00267969
0.00927881
0.00273726
0.00300364
0.00882603
0.0100025
5.33519e-06
0.0100092
1.69066e-05
0.0100205
2.6608e-05
0.0100352
3.6857e-05
0.0100525
4.44768e-05
0.010071
5.08166e-05
0.0100904
5.52662e-05
0.0101102
5.79803e-05
0.0101301
6.08397e-05
0.0101508
6.16648e-05
0.0101715
6.42892e-05
0.0101937
6.47072e-05
0.0102154
6.77848e-05
0.0102387
6.81149e-05
0.0102607
7.09927e-05
0.0102846
7.10709e-05
0.0103068
7.32356e-05
0.0103309
7.35629e-05
0.0103533
7.47512e-05
0.0103774
7.59789e-05
0.0104001
7.61555e-05
0.0104239
7.84963e-05
0.0104471
7.79922e-05
0.0104702
8.11312e-05
0.0104939
8.03479e-05
0.0105161
8.39333e-05
0.0105402
8.32634e-05
0.0105614
8.70489e-05
0.0105857
8.70055e-05
0.010606
9.05273e-05
0.01063
9.18954e-05
0.0106498
9.47547e-05
0.0106729
9.78926e-05
0.0106925
0.000100431
0.0107143
0.000104985
0.0107336
0.000108057
0.010754
0.000113791
0.010773
0.000117764
0.0107917
0.000124931
0.0108107
0.000130325
0.0108274
0.000138447
0.0108462
0.00014707
0.0108616
0.000154753
0.0108792
0.000168471
0.0108942
0.000175559
0.01091
0.000194444
0.0109251
0.000202557
0.0109391
0.000225865
0.0109544
0.000236737
0.0109671
0.000264046
0.0109826
0.000279466
0.0109948
0.00030994
0.0110101
0.000332391
0.0110233
0.000364717
0.0110378
0.000396802
0.0110534
0.000429687
0.0110663
0.000473904
0.011085
0.000506438
0.0110962
0.00056424
0.0111165
0.000597696
0.011126
0.000668792
0.0111455
0.000705678
0.0111515
0.000789926
0.0111678
0.000832825
0.0111673
0.000929758
0.0111749
0.000985248
0.0111647
0.00109351
0.0111579
0.00117173
0.0111359
0.00129123
0.011111
0.00140353
0.0110779
0.0015345
0.0110366
0.00169012
0.0109951
0.00182895
0.0109299
0.00203621
0.0108621
0.00217299
0.0107465
0.00243468
0.0106217
0.00255247
0.0104559
0.00284551
0.0102467
0.00294638
0.00321434
0.010036
0.0100019
3.45782e-06
0.0100079
1.08395e-05
0.0100174
1.71539e-05
0.0100305
2.37552e-05
0.010046
2.90053e-05
0.0100635
3.32676e-05
0.010082
3.67548e-05
0.0101016
3.84132e-05
0.0101213
4.1164e-05
0.0101419
4.10856e-05
0.0101624
4.37496e-05
0.0101841
4.30442e-05
0.0102056
4.62272e-05
0.0102282
4.54793e-05
0.0102505
4.87091e-05
0.0102738
4.78183e-05
0.0102965
5.0543e-05
0.01032
5.00717e-05
0.0103429
5.17737e-05
0.0103664
5.25435e-05
0.0103898
5.27828e-05
0.0104128
5.54237e-05
0.0104367
5.41207e-05
0.0104591
5.86875e-05
0.0104835
5.59475e-05
0.0105052
6.23232e-05
0.01053
5.84298e-05
0.0105507
6.63207e-05
0.0105757
6.20191e-05
0.0105957
7.05006e-05
0.0106203
6.72885e-05
0.0106401
7.50192e-05
0.0106637
7.42988e-05
0.0106835
8.059e-05
0.0107056
8.29184e-05
0.0107257
8.78946e-05
0.010746
9.35591e-05
0.0107666
9.71148e-05
0.0107847
0.00010684
0.010806
0.000109013
0.0108218
0.000122646
0.0108436
0.000125272
0.0108577
0.000140697
0.0108792
0.000146972
0.0108925
0.000162276
0.010913
0.000173892
0.0109262
0.000189401
0.0109456
0.000206452
0.0109593
0.00022303
0.0109772
0.000246134
0.0109925
0.000264158
0.0110087
0.000293716
0.0110261
0.000314976
0.0110414
0.000349478
0.0110608
0.000377361
0.0110757
0.000414815
0.0110972
0.000452394
0.0111121
0.000491552
0.0111346
0.000541725
0.0111504
0.000581905
0.0111721
0.000647115
0.0111886
0.000689174
0.0112081
0.000770381
0.0112234
0.000817573
0.0112384
0.000914742
0.0112493
0.000974343
0.0112576
0.00108521
0.0112603
0.00116901
0.0112603
0.00129123
0.0112525
0.00141138
0.0112447
0.0015423
0.011224
0.00171084
0.0112057
0.00184725
0.0111729
0.00206903
0.0111258
0.00222007
0.0110853
0.00247516
0.0109839
0.00265385
0.0109308
0.0028986
0.0107645
0.0031127
0.00332989
0.0106489
0.0100016
1.89543e-06
0.0100072
5.18184e-06
0.0100158
8.61277e-06
0.0100278
1.17433e-05
0.0100422
1.46182e-05
0.0100589
1.65103e-05
0.0100769
1.88222e-05
0.0100961
1.91549e-05
0.0101157
2.16111e-05
0.0101362
2.05725e-05
0.0101566
2.328e-05
0.010178
2.16556e-05
0.0101995
2.47522e-05
0.0102217
2.3267e-05
0.0102442
2.61953e-05
0.010267
2.50942e-05
0.0102902
2.73146e-05
0.0103131
2.71785e-05
0.0103367
2.81229e-05
0.0103596
2.96821e-05
0.0103835
2.88429e-05
0.0104063
3.26971e-05
0.0104304
3.00066e-05
0.010453
3.60774e-05
0.0104771
3.18769e-05
0.0104996
3.97994e-05
0.0105234
3.46135e-05
0.0105458
4.39351e-05
0.0105692
3.85621e-05
0.0105913
4.83908e-05
0.0106144
4.42607e-05
0.0106361
5.32576e-05
0.0106586
5.18627e-05
0.01068
5.91796e-05
0.0107017
6.11815e-05
0.0107227
6.6958e-05
0.0107438
7.24607e-05
0.010764
7.68224e-05
0.0107845
8.63964e-05
0.0108043
8.92142e-05
0.0108237
0.000103221
0.0108434
0.000105564
0.0108616
0.000122492
0.0108813
0.000127347
0.0108986
0.000144881
0.010918
0.000154503
0.0109348
0.000172681
0.0109546
0.000186583
0.0109702
0.000207445
0.0109914
0.000224992
0.0110063
0.000249181
0.011028
0.000272049
0.0110445
0.000298473
0.0110654
0.000328595
0.0110847
0.00035805
0.0111052
0.000394305
0.0111267
0.000430867
0.0111477
0.000470574
0.0111714
0.000518075
0.0111921
0.000561126
0.0112183
0.00062097
0.0112384
0.000669084
0.0112654
0.000743389
0.0112846
0.000798365
0.0113099
0.000889369
0.0113267
0.00095761
0.0113489
0.00106303
0.0113604
0.00115744
0.0113777
0.00127398
0.0113843
0.00140476
0.0113889
0.00153773
0.0113963
0.00170339
0.0113754
0.0018682
0.011385
0.00205939
0.0113349
0.00227019
0.0113336
0.00247647
0.0112615
0.00272592
0.0112143
0.00294579
0.0111157
0.00321128
0.00344934
0.0109963
0.0100014
4.92822e-07
0.0100069
-3.55966e-07
0.010015
5.54022e-07
0.0100265
1.9763e-07
0.0100404
7.50324e-07
0.0100567
2.12799e-07
0.0100744
1.13398e-06
0.0100934
1.82265e-07
0.0101129
2.03752e-06
0.0101334
1.48598e-07
0.0101538
2.79983e-06
0.0101752
3.08383e-07
0.0101965
3.44145e-06
0.0102188
1.00564e-06
0.0102411
3.87078e-06
0.010264
2.2067e-06
0.0102871
4.2331e-06
0.0103102
4.05508e-06
0.0103337
4.59992e-06
0.0103569
6.49135e-06
0.0103806
5.15892e-06
0.0104039
9.40713e-06
0.0104275
6.40014e-06
0.010451
1.25543e-05
0.0104743
8.61205e-06
0.0104981
1.59911e-05
0.0105208
1.185e-05
0.0105448
1.99812e-05
0.0105671
1.62669e-05
0.0105909
2.46104e-05
0.0106129
2.22104e-05
0.0106362
3.00208e-05
0.0106581
2.99332e-05
0.0106805
3.67284e-05
0.0107024
3.93448e-05
0.010724
4.52888e-05
0.0107456
5.08987e-05
0.0107667
5.57509e-05
0.0107876
6.54944e-05
0.0108085
6.82745e-05
0.0108283
8.34835e-05
0.0108496
8.42127e-05
0.010868
0.000104097
0.0108896
0.000105716
0.0109075
0.000127003
0.0109287
0.000133351
0.0109469
0.000154394
0.0109677
0.000165793
0.0109861
0.000189035
0.0110081
0.000203044
0.0110255
0.000231756
0.0110502
0.000247375
0.0110666
0.000282097
0.0110938
0.000301367
0.011111
0.000340873
0.0111392
0.000366097
0.0111591
0.000410933
0.0111877
0.000442043
0.0112108
0.000494908
0.0112395
0.000532469
0.011267
0.000593486
0.0112937
0.000642357
0.0113268
0.000710285
0.0113505
0.000774639
0.0113866
0.000853328
0.0114102
0.000933987
0.0114425
0.00103071
0.0114701
0.00112982
0.0114929
0.00125122
0.0115241
0.00137354
0.0115358
0.00152597
0.0115616
0.00167764
0.0115658
0.00186395
0.0115717
0.00205351
0.01157
0.00227188
0.0115475
0.00249896
0.0115256
0.00274786
0.0114606
0.00301084
0.0113986
0.00327319
0.0035718
0.0112762
0.0100015
-1.05173e-06
0.0100069
-5.74282e-06
0.0100151
-7.58855e-06
0.0100266
-1.12974e-05
0.0100405
-1.32297e-05
0.0100567
-1.59325e-05
0.0100746
-1.67438e-05
0.0100932
-1.84464e-05
0.0101132
-1.79728e-05
0.0101332
-1.97912e-05
0.0101542
-1.82485e-05
0.010175
-2.04879e-05
0.0101969
-1.84415e-05
0.0102187
-2.08321e-05
0.0102415
-1.88729e-05
0.0102642
-2.04856e-05
0.0102875
-1.90784e-05
0.0103106
-1.90962e-05
0.0103342
-1.90042e-05
0.0103576
-1.68673e-05
0.0103813
-1.85853e-05
0.0104048
-1.40489e-05
0.0104286
-1.74177e-05
0.0104521
-1.09793e-05
0.0104759
-1.51175e-05
0.0104995
-7.68931e-06
0.0105229
-1.15133e-05
0.0105468
-3.92634e-06
0.0105696
-6.48732e-06
0.0105937
5.05143e-07
0.0106158
9.1898e-08
0.0106401
5.75166e-06
0.0106614
8.6333e-06
0.0106857
1.23871e-05
0.0107063
1.87644e-05
0.0107304
2.11308e-05
0.0107506
3.07076e-05
0.0107742
3.21611e-05
0.0107942
4.55166e-05
0.0108173
4.51759e-05
0.0108367
6.40866e-05
0.0108601
6.08347e-05
0.0108782
8.59477e-05
0.0109025
8.14737e-05
0.0109198
0.000109627
0.0109439
0.000109329
0.0109625
0.000135736
0.0109851
0.000143256
0.0110059
0.000168189
0.0110278
0.000181132
0.0110499
0.000209619
0.011073
0.000224322
0.011096
0.000259055
0.0111207
0.000276739
0.0111455
0.000316035
0.0111716
0.000340006
0.011199
0.000383535
0.0112269
0.000414117
0.011257
0.000464875
0.0112877
0.000501725
0.0113199
0.000561318
0.0113541
0.000608116
0.0113882
0.000676171
0.011426
0.000736828
0.0114615
0.000817822
0.0115026
0.000892971
0.01154
0.000993227
0.0115807
0.00108916
0.0116219
0.00121006
0.0116578
0.00133765
0.0117002
0.00148351
0.0117295
0.0016484
0.0117631
0.00183031
0.0117815
0.00203508
0.0117992
0.00225421
0.0117913
0.00250686
0.0117824
0.00275678
0.0117355
0.00305775
0.0116626
0.0033461
0.00365567
0.0115787
0.0100019
-2.91008e-06
0.0100073
-1.12034e-05
0.0100158
-1.61135e-05
0.010028
-2.34467e-05
0.0100424
-2.76291e-05
0.0100591
-3.26891e-05
0.0100771
-3.4744e-05
0.010096
-3.73094e-05
0.0101162
-3.81685e-05
0.010136
-3.95365e-05
0.0101574
-3.97335e-05
0.0101779
-4.09165e-05
0.0102004
-4.09688e-05
0.0102219
-4.23518e-05
0.0102452
-4.2138e-05
0.0102677
-4.30406e-05
0.0102913
-4.26066e-05
0.0103146
-4.24131e-05
0.0103381
-4.25105e-05
0.0103619
-4.07028e-05
0.0103854
-4.20337e-05
0.0104095
-3.81946e-05
0.010433
-4.08947e-05
0.0104573
-3.52479e-05
0.0104807
-3.85953e-05
0.0105051
-3.20692e-05
0.0105283
-3.46997e-05
0.010553
-2.86157e-05
0.0105755
-2.89878e-05
0.0106007
-2.47059e-05
0.0106223
-2.14792e-05
0.0106478
-1.97768e-05
0.0106689
-1.24234e-05
0.0106941
-1.28573e-05
0.0107152
-2.31046e-06
0.0107394
-3.07744e-06
0.0107614
8.70908e-06
0.0107836
9.93938e-06
0.0108071
2.19799e-05
0.0108274
2.49102e-05
0.0108519
3.96113e-05
0.0108716
4.10985e-05
0.0108952
6.24139e-05
0.0109167
5.98831e-05
0.0109378
8.85541e-05
0.0109618
8.53816e-05
0.0109822
0.000115271
0.0110059
0.000119635
0.0110295
0.000144583
0.0110506
0.000160039
0.0110783
0.000181859
0.0110987
0.000203891
0.0111286
0.000229198
0.0111512
0.000254184
0.0111823
0.000284882
0.0112079
0.000314421
0.0112407
0.000350768
0.0112705
0.000384304
0.0113044
0.000430967
0.0113397
0.000466385
0.0113756
0.000525438
0.0114153
0.000568394
0.0114566
0.00063486
0.0114976
0.000695821
0.0115478
0.000767615
0.0115894
0.000851438
0.0116466
0.000936044
0.0116929
0.00104288
0.0117515
0.00115138
0.0118037
0.00128551
0.0118615
0.00142571
0.0119127
0.0015972
0.0119665
0.00177648
0.0120097
0.00199186
0.0120393
0.00222465
0.0120677
0.00247847
0.0120545
0.00276999
0.0120456
0.00306665
0.0119712
0.00342045
0.00374253
0.0118844
0.0100024
-5.3215e-06
0.0100079
-1.66883e-05
0.0100176
-2.58171e-05
0.0100308
-3.66247e-05
0.0100463
-4.31593e-05
0.010064
-5.03884e-05
0.0100823
-5.30767e-05
0.0101019
-5.68499e-05
0.0101219
-5.81576e-05
0.0101421
-5.97434e-05
0.0101634
-6.10856e-05
0.0101844
-6.18455e-05
0.010207
-6.36167e-05
0.010229
-6.43297e-05
0.0102523
-6.54458e-05
0.0102753
-6.60091e-05
0.0102986
-6.59722e-05
0.0103225
-6.62915e-05
0.0103456
-6.55815e-05
0.0103703
-6.54175e-05
0.010393
-6.47536e-05
0.0104184
-6.35668e-05
0.010441
-6.34643e-05
0.0104666
-6.0855e-05
0.0104893
-6.13387e-05
0.0105147
-5.74303e-05
0.0105378
-5.78414e-05
0.0105626
-5.34578e-05
0.0105862
-5.25186e-05
0.0106105
-4.90436e-05
0.0106342
-4.51911e-05
0.0106581
-4.36472e-05
0.010682
-3.63358e-05
0.0107051
-3.59919e-05
0.0107296
-2.67623e-05
0.0107515
-2.49376e-05
0.0107769
-1.67666e-05
0.010797
-1.01095e-05
0.0108243
-5.33487e-06
0.0108419
7.33709e-06
0.0108711
1.04255e-05
0.0108872
2.49758e-05
0.0109169
3.26814e-05
0.0109337
4.30828e-05
0.0109618
6.04525e-05
0.0109816
6.56306e-05
0.0110075
8.93191e-05
0.0110299
9.7243e-05
0.0110558
0.000118653
0.0110792
0.000136714
0.0111071
0.000153963
0.0111314
0.000179524
0.011161
0.000199661
0.011188
0.000227096
0.0112193
0.000253612
0.011249
0.000284719
0.0112845
0.00031525
0.0113154
0.000353454
0.0113573
0.000389025
0.0113899
0.000433772
0.0114382
0.000477208
0.011475
0.000531528
0.0115283
0.000581565
0.0115732
0.000650993
0.0116299
0.000710846
0.0116859
0.000795473
0.011746
0.000875941
0.0118131
0.000975777
0.0118795
0.00108502
0.0119536
0.00121132
0.0120266
0.00135279
0.0121058
0.00151796
0.0121755
0.00170679
0.0122503
0.00191702
0.0123095
0.0021655
0.0123528
0.00243515
0.0123822
0.00274055
0.0123707
0.00307818
0.0123447
0.00344652
0.00385174
0.0122354
0.0100031
-8.41387e-06
0.010009
-2.25911e-05
0.0100208
-3.76445e-05
0.0100355
-5.12808e-05
0.0100527
-6.04225e-05
0.0100717
-6.93366e-05
0.0100904
-7.17949e-05
0.0101109
-7.73748e-05
0.0101304
-7.75795e-05
0.0101516
-8.0972e-05
0.0101725
-8.19926e-05
0.0101947
-8.40304e-05
0.0102172
-8.61127e-05
0.0102401
-8.72216e-05
0.0102634
-8.87665e-05
0.0102868
-8.93791e-05
0.0103104
-8.96143e-05
0.0103342
-9.01113e-05
0.0103578
-8.92007e-05
0.0103824
-8.99383e-05
0.0104056
-8.80075e-05
0.010431
-8.89621e-05
0.0104539
-8.63427e-05
0.0104797
-8.67119e-05
0.0105028
-8.43834e-05
0.0105282
-8.28912e-05
0.0105521
-8.16956e-05
0.0105766
-7.79827e-05
0.0106014
-7.725e-05
0.0106252
-7.28571e-05
0.0106501
-7.01667e-05
0.010674
-6.74798e-05
0.0106983
-6.07065e-05
0.0107228
-6.04699e-05
0.0107461
-5.00375e-05
0.0107713
-5.00866e-05
0.0107939
-3.93931e-05
0.0108186
-3.47973e-05
0.0108424
-2.92033e-05
0.0108643
-1.45785e-05
0.010892
-1.72251e-05
0.0109098
7.17907e-06
0.010941
1.45543e-06
0.0109575
2.66403e-05
0.0109876
3.03286e-05
0.0110087
4.44872e-05
0.0110338
6.42199e-05
0.0110615
6.95374e-05
0.0110833
9.6916e-05
0.0111143
0.000105719
0.0111376
0.00013064
0.0111691
0.000148045
0.0111962
0.000172559
0.0112285
0.000194768
0.0112596
0.000222536
0.0112937
0.000250608
0.0113293
0.000279622
0.011367
0.000315802
0.0114062
0.00034984
0.0114513
0.000388648
0.0114918
0.000436659
0.011548
0.000475382
0.0115914
0.000538147
0.0116566
0.000585742
0.0117096
0.000657866
0.0117828
0.000722302
0.0118459
0.000812833
0.0119347
0.000887024
0.0120032
0.00101648
0.0121089
0.00110558
0.0121913
0.00127045
0.012299
0.00141023
0.0123982
0.0016076
0.0125008
0.00181439
0.0125935
0.00207284
0.0126755
0.00235311
0.0127378
0.00267827
0.012763
0.00305296
0.0127431
0.00346646
0.00391254
0.0126823
0.0100036
-1.20579e-05
0.0100116
-3.05076e-05
0.0100261
-5.22155e-05
0.0100432
-6.83165e-05
0.0100627
-7.99513e-05
0.0100828
-8.94862e-05
0.0101023
-9.12835e-05
0.0101233
-9.83527e-05
0.0101429
-9.71345e-05
0.0101648
-0.000102866
0.0101861
-0.000103355
0.0102092
-0.000107109
0.0102321
-0.000109018
0.0102557
-0.000110772
0.0102793
-0.000112429
0.0103029
-0.000112951
0.0103271
-0.000113793
0.0103506
-0.00011366
0.0103752
-0.000113771
0.0103992
-0.000113909
0.0104235
-0.000112358
0.0104485
-0.000113994
0.0104721
-0.000109872
0.0104983
-0.000112942
0.0105211
-0.000107215
0.0105479
-0.000109653
0.0105708
-0.000104591
0.0105972
-0.000104382
0.0106208
-0.000100884
0.0106464
-9.84242e-05
0.0106708
-9.45618e-05
0.0106958
-9.25053e-05
0.0107201
-8.50112e-05
0.0107458
-8.61046e-05
0.0107685
-7.27421e-05
0.0107961
-7.77164e-05
0.0108162
-5.95409e-05
0.0108459
-6.44649e-05
0.0108648
-4.81125e-05
0.0108941
-4.38748e-05
0.0109153
-3.83731e-05
0.010941
-1.85492e-05
0.0109664
-2.39371e-05
0.0109894
3.58951e-06
0.0110161
3.67019e-06
0.0110412
1.93925e-05
0.0110657
3.9735e-05
0.0110952
4.00431e-05
0.0111181
7.39389e-05
0.0111503
7.35717e-05
0.0111748
0.000106113
0.0112087
0.00011413
0.0112353
0.000145992
0.0112732
0.000156893
0.0113013
0.000194431
0.0113435
0.000208352
0.0113756
0.000247537
0.0114213
0.000270126
0.01146
0.000311142
0.0115096
0.000339046
0.0115561
0.000390115
0.0116119
0.000419591
0.0116672
0.000482885
0.0117307
0.000522258
0.0117999
0.000588617
0.0118675
0.000654715
0.011961
0.000719366
0.0120345
0.000813534
0.0121455
0.000905419
0.0122447
0.00100639
0.0123673
0.00114787
0.0124843
0.00129323
0.0126331
0.00145879
0.0127557
0.00169179
0.0128987
0.00192985
0.0130328
0.002219
0.0131189
0.00259221
0.0132165
0.00295531
0.0132355
0.00344752
0.00396883
0.0131792
0.0100047
-1.6759e-05
0.0100164
-4.22127e-05
0.0100357
-7.1485e-05
0.010056
-8.85946e-05
0.0100785
-0.00010253
0.0100988
-0.000109747
0.0101198
-0.000112319
0.0101402
-0.000118719
0.0101615
-0.000118431
0.0101836
-0.00012496
0.0102064
-0.000126218
0.0102299
-0.000130574
0.0102536
-0.000132744
0.0102777
-0.000134792
0.0103014
-0.000136173
0.0103255
-0.000137037
0.0103497
-0.000137973
0.0103735
-0.000137441
0.0103987
-0.000138992
0.0104221
-0.000137352
0.010448
-0.000138207
0.0104718
-0.000137813
0.0104972
-0.000135319
0.0105221
-0.0001378
0.0105467
-0.000131875
0.0105723
-0.000135214
0.0105969
-0.00012917
0.010622
-0.000129541
0.0106477
-0.000126491
0.0106714
-0.000122124
0.0106986
-0.000121789
0.0107207
-0.00011463
0.0107487
-0.00011302
0.010771
-0.000108377
0.0107971
-9.88079e-05
0.0108227
-0.00010333
0.0108438
-8.07093e-05
0.0108747
-9.52942e-05
0.0108911
-6.45302e-05
0.0109248
-7.75502e-05
0.0109414
-5.49886e-05
0.0109715
-4.8679e-05
0.0109952
-4.7649e-05
0.0110166
-1.78346e-05
0.0110508
-3.0462e-05
0.0110651
5.01731e-06
0.011105
-9.48762e-08
0.0111192
2.58031e-05
0.011158
3.5149e-05
0.0111779
5.37011e-05
0.0112147
6.92757e-05
0.0112402
8.85973e-05
0.0112772
0.000109045
0.0113074
0.000126725
0.0113468
0.000154944
0.0113812
0.00017404
0.0114263
0.000202379
0.0114629
0.000233495
0.0115183
0.000255826
0.0115557
0.000301585
0.011624
0.000321818
0.0116656
0.000378031
0.0117447
0.000403801
0.0117986
0.000468313
0.0118866
0.000500665
0.0119524
0.000588892
0.0120677
0.000604025
0.0121331
0.000748171
0.0122802
0.000758357
0.0123814
0.00090514
0.0125202
0.00100903
0.012692
0.00112143
0.0128351
0.00131576
0.0130359
0.00149097
0.0132163
0.00174943
0.0133996
0.0020357
0.0135802
0.00241161
0.0137022
0.00283334
0.0138164
0.00333334
0.00396474
0.0138205
0.0100066
-2.33159e-05
0.0100269
-6.25579e-05
0.010052
-9.65961e-05
0.010077
-0.000113606
0.0101009
-0.000126357
0.0101226
-0.0001315
0.0101443
-0.000134033
0.0101652
-0.000139615
0.0101881
-0.000141325
0.0102112
-0.000148006
0.0102354
-0.000150509
0.0102595
-0.000154588
0.0102834
-0.000156679
0.0103076
-0.000158951
0.0103307
-0.000159328
0.0103551
-0.000161419
0.0103783
-0.000161161
0.0104026
-0.000161717
0.0104266
-0.000163068
0.0104503
-0.000161014
0.0104752
-0.000163083
0.0104985
-0.000161105
0.0105233
-0.000160175
0.0105468
-0.000161316
0.010571
-0.00015608
0.010595
-0.000159152
0.0106184
-0.00015259
0.0106427
-0.00015383
0.0106653
-0.000149138
0.0106898
-0.000146549
0.0107118
-0.000143867
0.0107361
-0.000138869
0.0107576
-0.000134551
0.0107822
-0.000132986
0.0108018
-0.000118401
0.0108291
-0.00013064
0.0108441
-9.56621e-05