/*--------------------------------*- C++ -*----------------------------------*\
| =========                 |                                                 |
| \\      /  F ield         | OpenFOAM: The Open Source CFD Toolbox           |
|  \\    /   O peration     | Version:  2306                                  |
|   \\  /    A nd           | Website:  www.openfoam.com                      |
|    \\/     M anipulation  |                                                 |
\*---------------------------------------------------------------------------*/
FoamFile
{
    version     2.0;
    format      ascii;
    arch        "LSB;label=32;scalar=64";
    class       volVectorField;
    location    "0.35";
    object      U;
}
// * * * * * * * * * * * * * * * * * * * * * * * * * * * * * * * * * * * * * //

dimensions      [0 1 -1 0 0 0 0];

internalField   nonuniform List<vector> 
4400
(
(9.90182 0.0455018 0)
(9.80626 0.0987364 0)
(9.70013 0.120948 0)
(9.57013 0.125815 0)
(9.41823 0.124464 0)
(9.25213 0.123477 0)
(9.08067 0.124117 0)
(8.90815 0.125703 0)
(8.73732 0.126967 0)
(8.56775 0.127419 0)
(8.40018 0.126861 0)
(8.23328 0.125551 0)
(8.06804 0.123765 0)
(7.90317 0.121742 0)
(7.74009 0.119661 0)
(7.57753 0.117536 0)
(7.41709 0.11543 0)
(7.25745 0.113258 0)
(7.10021 0.111062 0)
(6.94406 0.108762 0)
(6.79036 0.106461 0)
(6.63802 0.104031 0)
(6.48814 0.101631 0)
(6.33994 0.0991007 0)
(6.19411 0.0966778 0)
(6.0502 0.0941016 0)
(5.90865 0.091657 0)
(5.76914 0.0890888 0)
(5.63203 0.0866818 0)
(5.49687 0.0841864 0)
(5.36435 0.0818212 0)
(5.23346 0.0794773 0)
(5.1055 0.0772293 0)
(4.97856 0.0750463 0)
(4.85488 0.0729695 0)
(4.73151 0.0709774 0)
(4.61153 0.0692063 0)
(4.49111 0.0674841 0)
(4.37396 0.0661514 0)
(4.25563 0.0648374 0)
(4.14007 0.0641205 0)
(4.0226 0.063378 0)
(3.90715 0.0634177 0)
(3.78891 0.0634309 0)
(3.67175 0.064302 0)
(3.55057 0.0652783 0)
(3.42945 0.0670389 0)
(3.30257 0.0691619 0)
(3.1747 0.0719254 0)
(3.03881 0.0753156 0)
(2.90075 0.0792214 0)
(2.75208 0.0839491 0)
(2.59974 0.0891034 0)
(2.43412 0.0951379 0)
(2.26296 0.101495 0)
(2.07599 0.10854 0)
(1.88149 0.115711 0)
(1.66901 0.122993 0)
(1.44754 0.129918 0)
(1.20667 0.1358 0)
(0.956778 0.140157 0)
(0.687512 0.140966 0)
(0.41076 0.134024 0)
(0.133883 0.103749 0)
(-0.118074 0.048806 0)
(-0.365224 -0.0334258 0)
(-0.542776 -0.12604 0)
(-0.660204 -0.234871 0)
(-0.671066 -0.357806 0)
(-0.607851 -0.495234 0)
(-0.410397 -0.619925 0)
(-0.155216 -0.703737 0)
(0.130047 -0.569985 0)
(0.286958 -0.226296 0)
(0.403882 0.441051 0)
(-0.274096 0.911317 0)
(-0.464396 0.334362 0)
(-0.0222664 -0.0824021 0)
(0.285997 -0.0848646 0)
(0.0905539 -0.194038 0)
(10.0004 0.0611851 0)
(10.0316 0.137453 0)
(10.0699 0.173617 0)
(10.1047 0.184958 0)
(10.1328 0.186153 0)
(10.1497 0.186262 0)
(10.1593 0.18825 0)
(10.1606 0.192002 0)
(10.1595 0.195864 0)
(10.1534 0.199177 0)
(10.1471 0.201018 0)
(10.1364 0.202109 0)
(10.1257 0.202038 0)
(10.1102 0.201933 0)
(10.0945 0.20121 0)
(10.0742 0.200816 0)
(10.0535 0.200005 0)
(10.0286 0.199438 0)
(10.0033 0.198557 0)
(9.97439 0.197647 0)
(9.94473 0.196688 0)
(9.91224 0.195383 0)
(9.87846 0.194299 0)
(9.84266 0.192721 0)
(9.80505 0.191453 0)
(9.76597 0.189811 0)
(9.72485 0.188275 0)
(9.68242 0.186692 0)
(9.63821 0.18491 0)
(9.59217 0.183507 0)
(9.54529 0.181472 0)
(9.4954 0.180365 0)
(9.44599 0.17817 0)
(9.39216 0.177396 0)
(9.33991 0.175269 0)
(9.2823 0.174768 0)
(9.22656 0.173022 0)
(9.16527 0.172882 0)
(9.10517 0.171748 0)
(9.04007 0.172151 0)
(8.97461 0.171886 0)
(8.9051 0.173051 0)
(8.83333 0.174018 0)
(8.75811 0.176307 0)
(8.67932 0.178751 0)
(8.59624 0.18275 0)
(8.50961 0.186854 0)
(8.41599 0.193114 0)
(8.32006 0.199313 0)
(8.21303 0.208182 0)
(8.10532 0.217089 0)
(7.98183 0.228863 0)
(7.85878 0.241022 0)
(7.71544 0.256007 0)
(7.57251 0.271743 0)
(7.40526 0.290179 0)
(7.2373 0.309278 0)
(7.04114 0.331174 0)
(6.84271 0.352556 0)
(6.61207 0.376975 0)
(6.37738 0.398221 0)
(6.10718 0.421784 0)
(5.83012 0.437639 0)
(5.51734 0.452233 0)
(5.20014 0.45113 0)
(4.85447 0.446398 0)
(4.48226 0.414879 0)
(4.07606 0.380762 0)
(3.61001 0.321848 0)
(3.08542 0.279551 0)
(2.41055 0.215967 0)
(1.5904 0.219465 0)
(0.55077 0.153791 0)
(-0.140726 -0.0103936 0)
(-0.534163 0.0283559 0)
(-0.477858 -0.0714676 0)
(-0.123867 -0.678897 0)
(-0.406317 -0.80421 0)
(-0.283158 -0.0211749 0)
(-0.266049 0.616293 0)
(10.0002 0.0267985 0)
(10.0165 0.0697332 0)
(10.0431 0.099884 0)
(10.0743 0.117547 0)
(10.1087 0.126744 0)
(10.1389 0.131969 0)
(10.1677 0.135755 0)
(10.1905 0.140508 0)
(10.2135 0.145147 0)
(10.2325 0.150578 0)
(10.2539 0.154684 0)
(10.2726 0.15891 0)
(10.2939 0.161504 0)
(10.3125 0.164313 0)
(10.333 0.165923 0)
(10.3505 0.168018 0)
(10.3695 0.169293 0)
(10.3857 0.17103 0)
(10.4028 0.172207 0)
(10.4176 0.173514 0)
(10.4329 0.174722 0)
(10.4462 0.175426 0)
(10.4597 0.176722 0)
(10.4713 0.176844 0)
(10.4828 0.178249 0)
(10.4925 0.177909 0)
(10.502 0.179425 0)
(10.5095 0.178733 0)
(10.517 0.180343 0)
(10.5216 0.179611 0)
(10.5273 0.181029 0)
(10.5287 0.180763 0)
(10.5325 0.181809 0)
(10.5303 0.182252 0)
(10.5316 0.183284 0)
(10.5264 0.184155 0)
(10.5242 0.185946 0)
(10.5163 0.186999 0)
(10.5091 0.190175 0)
(10.4995 0.191413 0)
(10.4859 0.196519 0)
(10.4746 0.198108 0)
(10.4539 0.205656 0)
(10.4401 0.208235 0)
(10.4122 0.218186 0)
(10.3942 0.223205 0)
(10.3593 0.235062 0)
(10.3351 0.244114 0)
(10.2931 0.257797 0)
(10.2605 0.271987 0)
(10.2107 0.288006 0)
(10.1678 0.308068 0)
(10.1086 0.327242 0)
(10.0532 0.353495 0)
(9.98259 0.377084 0)
(9.91231 0.409034 0)
(9.82731 0.438311 0)
(9.7391 0.47491 0)
(9.63624 0.509955 0)
(9.52589 0.5493 0)
(9.4009 0.588008 0)
(9.26211 0.62586 0)
(9.10972 0.662521 0)
(8.93245 0.691051 0)
(8.74452 0.715288 0)
(8.515 0.725315 0)
(8.2714 0.730719 0)
(7.95983 0.723868 0)
(7.63797 0.7284 0)
(7.2191 0.739475 0)
(6.79129 0.792621 0)
(6.24229 0.869327 0)
(5.69975 0.98302 0)
(5.01945 0.980036 0)
(4.43793 0.886839 0)
(3.41844 0.713452 0)
(2.68202 0.450284 0)
(1.24636 0.230705 0)
(-0.20653 -0.192776 0)
(-0.420565 -0.242237 0)
(10.0002 0.0189169 0)
(10.0099 0.0525498 0)
(10.0281 0.0807974 0)
(10.0506 0.101078 0)
(10.0785 0.114859 0)
(10.1045 0.122994 0)
(10.1326 0.128465 0)
(10.1553 0.132506 0)
(10.1806 0.136262 0)
(10.2003 0.140377 0)
(10.2247 0.143821 0)
(10.2442 0.147769 0)
(10.2695 0.150031 0)
(10.2898 0.15315 0)
(10.3159 0.154112 0)
(10.3365 0.156622 0)
(10.3626 0.156884 0)
(10.3832 0.159032 0)
(10.4087 0.159245 0)
(10.4295 0.160887 0)
(10.454 0.161543 0)
(10.4751 0.16234 0)
(10.4986 0.163641 0)
(10.5198 0.163645 0)
(10.5424 0.165426 0)
(10.5632 0.165022 0)
(10.5849 0.166915 0)
(10.6049 0.16662 0)
(10.6259 0.168275 0)
(10.6444 0.168663 0)
(10.6648 0.169617 0)
(10.6815 0.171394 0)
(10.7009 0.171298 0)
(10.7159 0.17492 0)
(10.734 0.173891 0)
(10.7468 0.179385 0)
(10.7636 0.177939 0)
(10.7739 0.185282 0)
(10.7889 0.184029 0)
(10.7972 0.193034 0)
(10.8091 0.193146 0)
(10.816 0.203108 0)
(10.824 0.206245 0)
(10.8293 0.216602 0)
(10.8337 0.223786 0)
(10.8359 0.23512 0)
(10.8375 0.24659 0)
(10.8351 0.259855 0)
(10.8347 0.276288 0)
(10.8262 0.291859 0)
(10.8242 0.314534 0)
(10.8085 0.332788 0)
(10.8048 0.362603 0)
(10.7809 0.38459 0)
(10.7755 0.421548 0)
(10.7415 0.449087 0)
(10.735 0.49179 0)
(10.6879 0.527085 0)
(10.6801 0.573086 0)
(10.6174 0.616486 0)
(10.6045 0.663561 0)
(10.5238 0.711609 0)
(10.4978 0.756876 0)
(10.3937 0.803723 0)
(10.341 0.842355 0)
(10.2019 0.884868 0)
(10.1044 0.918008 0)
(9.9126 0.96672 0)
(9.75548 1.00879 0)
(9.49413 1.08462 0)
(9.26633 1.15791 0)
(8.9222 1.27095 0)
(8.61639 1.36077 0)
(8.16496 1.44845 0)
(7.74806 1.46877 0)
(7.15177 1.5011 0)
(6.54748 1.48628 0)
(5.782 1.52832 0)
(4.87106 1.53449 0)
(3.68113 1.31802 0)
(10.0006 0.0134901 0)
(10.0064 0.0382561 0)
(10.0201 0.0607062 0)
(10.0363 0.0775556 0)
(10.0591 0.0908649 0)
(10.0808 0.0985587 0)
(10.1066 0.104774 0)
(10.128 0.10793 0)
(10.153 0.111562 0)
(10.1725 0.114247 0)
(10.1971 0.117359 0)
(10.216 0.120429 0)
(10.2414 0.1227 0)
(10.2608 0.125667 0)
(10.2873 0.12669 0)
(10.3072 0.129514 0)
(10.3343 0.129376 0)
(10.3543 0.132352 0)
(10.3813 0.13152 0)
(10.4017 0.134654 0)
(10.4281 0.133759 0)
(10.449 0.1365 0)
(10.4746 0.136235 0)
(10.4961 0.138107 0)
(10.5208 0.138863 0)
(10.5425 0.139682 0)
(10.5665 0.141577 0)
(10.5879 0.141451 0)
(10.6118 0.144475 0)
(10.6314 0.143745 0)
(10.6564 0.147513 0)
(10.6731 0.147085 0)
(10.6996 0.150849 0)
(10.7129 0.151686 0)
(10.7408 0.155078 0)
(10.7504 0.157578 0)
(10.7799 0.160922 0)
(10.7853 0.165203 0)
(10.8161 0.168851 0)
(10.8179 0.175129 0)
(10.8487 0.179824 0)
(10.8484 0.187541 0)
(10.8772 0.195291 0)
(10.876 0.20299 0)
(10.9022 0.215927 0)
(10.8998 0.223356 0)
(10.9238 0.241684 0)
(10.9193 0.250952 0)
(10.9424 0.273241 0)
(10.9343 0.287384 0)
(10.9578 0.312253 0)
(10.9452 0.333814 0)
(10.9694 0.360905 0)
(10.9532 0.390954 0)
(10.9766 0.421786 0)
(10.9592 0.45909 0)
(10.979 0.496495 0)
(10.9626 0.53922 0)
(10.9767 0.58387 0)
(10.9608 0.632168 0)
(10.9679 0.681107 0)
(10.949 0.735918 0)
(10.9462 0.78488 0)
(10.9175 0.846485 0)
(10.8985 0.893186 0)
(10.8496 0.962708 0)
(10.8057 1.01365 0)
(10.7251 1.09508 0)
(10.6466 1.16507 0)
(10.5228 1.26523 0)
(10.4041 1.36475 0)
(10.2211 1.48893 0)
(10.0663 1.60725 0)
(9.79225 1.73799 0)
(9.60646 1.84432 0)
(9.18601 1.95326 0)
(8.94959 2.03588 0)
(8.29026 2.10365 0)
(7.93678 2.16241 0)
(6.9341 2.1659 0)
(10.0008 0.00969423 0)
(10.0047 0.0280285 0)
(10.0156 0.0448016 0)
(10.0284 0.0586717 0)
(10.0469 0.0699962 0)
(10.0662 0.0775787 0)
(10.0885 0.0835528 0)
(10.1098 0.0868221 0)
(10.1327 0.0903024 0)
(10.1536 0.092407 0)
(10.1763 0.0952539 0)
(10.1967 0.0975635 0)
(10.2203 0.0997389 0)
(10.2405 0.102388 0)
(10.2659 0.103355 0)
(10.2855 0.106351 0)
(10.3128 0.105832 0)
(10.3313 0.109408 0)
(10.3605 0.107728 0)
(10.3775 0.11191 0)
(10.4082 0.109745 0)
(10.4237 0.113902 0)
(10.4556 0.112298 0)
(10.47 0.115541 0)
(10.5024 0.115386 0)
(10.5162 0.11706 0)
(10.5486 0.118851 0)
(10.5617 0.118806 0)
(10.5945 0.122732 0)
(10.6057 0.121066 0)
(10.6398 0.12707 0)
(10.6483 0.124426 0)
(10.6839 0.131823 0)
(10.6894 0.129407 0)
(10.7261 0.13729 0)
(10.7291 0.136204 0)
(10.7666 0.144248 0)
(10.7664 0.145121 0)
(10.8053 0.153118 0)
(10.8014 0.15703 0)
(10.8415 0.164315 0)
(10.8346 0.172525 0)
(10.8744 0.1792 0)
(10.8662 0.191572 0)
(10.904 0.199495 0)
(10.896 0.214815 0)
(10.9304 0.22607 0)
(10.924 0.243955 0)
(10.954 0.259726 0)
(10.9499 0.280551 0)
(10.9758 0.301905 0)
(10.974 0.326119 0)
(10.996 0.353699 0)
(10.9972 0.382878 0)
(11.0149 0.415862 0)
(11.0202 0.452305 0)
(11.0333 0.489876 0)
(11.0435 0.534489 0)
(11.0508 0.576894 0)
(11.0662 0.629027 0)
(11.0669 0.676907 0)
(11.0837 0.734913 0)
(11.0793 0.790053 0)
(11.0892 0.851921 0)
(11.0798 0.917654 0)
(11.0735 0.985776 0)
(11.0582 1.06444 0)
(11.0221 1.14871 0)
(11.0051 1.24246 0)
(10.919 1.35375 0)
(10.9112 1.4667 0)
(10.7528 1.61001 0)
(10.7662 1.74013 0)
(10.517 1.9117 0)
(10.5455 2.03839 0)
(10.1931 2.22713 0)
(10.1773 2.31725 0)
(9.72383 2.52549 0)
(9.53999 2.56305 0)
(9.05014 2.81094 0)
(10.0004 0.00656385 0)
(10.0042 0.020678 0)
(10.0124 0.0320825 0)
(10.0243 0.0435785 0)
(10.0391 0.051903 0)
(10.0572 0.0590524 0)
(10.0763 0.0639368 0)
(10.0975 0.0672416 0)
(10.1185 0.0702991 0)
(10.1401 0.0718912 0)
(10.1619 0.0745521 0)
(10.1826 0.0757615 0)
(10.2059 0.0783394 0)
(10.2256 0.0795028 0)
(10.2515 0.0816943 0)
(10.2696 0.082781 0)
(10.2985 0.084132 0)
(10.3143 0.0855137 0)
(10.3466 0.0859118 0)
(10.3595 0.0879922 0)
(10.3949 0.0876015 0)
(10.4048 0.0902905 0)
(10.443 0.0897153 0)
(10.4505 0.0925268 0)
(10.49 0.0923647 0)
(10.4968 0.0948031 0)
(10.5355 0.0955947 0)
(10.5438 0.0972953 0)
(10.5795 0.0995662 0)
(10.5903 0.100199 0)
(10.6226 0.104369 0)
(10.6357 0.104144 0)
(10.6648 0.109825 0)
(10.6795 0.109828 0)
(10.706 0.116043 0)
(10.7212 0.117607 0)
(10.7466 0.123739 0)
(10.7601 0.1277 0)
(10.7866 0.133337 0)
(10.7962 0.141086 0)
(10.8252 0.144938 0)
(10.8301 0.158712 0)
(10.8617 0.159637 0)
(10.8624 0.180283 0)
(10.8957 0.179801 0)
(10.8935 0.205402 0)
(10.9266 0.207231 0)
(10.9248 0.235146 0)
(10.9538 0.242585 0)
(10.9565 0.271523 0)
(10.9787 0.286531 0)
(10.9879 0.316238 0)
(11.0032 0.340414 0)
(11.0189 0.370596 0)
(11.0283 0.405561 0)
(11.0498 0.436212 0)
(11.0553 0.482603 0)
(11.0799 0.514523 0)
(11.0846 0.572489 0)
(11.1102 0.605736 0)
(11.1133 0.676547 0)
(11.1394 0.711176 0)
(11.1402 0.794636 0)
(11.1598 0.835569 0)
(11.1654 0.928847 0)
(11.1621 0.984227 0)
(11.1835 1.08754 0)
(11.1387 1.16486 0)
(11.1845 1.28134 0)
(11.0861 1.39013 0)
(11.155 1.52025 0)
(11.0047 1.67118 0)
(11.084 1.80956 0)
(10.8953 2.00645 0)
(10.9527 2.13984 0)
(10.7509 2.37729 0)
(10.722 2.48682 0)
(10.5332 2.76537 0)
(10.3542 2.84068 0)
(10.1623 3.13922 0)
(10.0001 0.00445979 0)
(10.0038 0.0140349 0)
(10.0106 0.0219352 0)
(10.0215 0.0300084 0)
(10.0346 0.0361282 0)
(10.0511 0.0413399 0)
(10.069 0.0453808 0)
(10.0887 0.0476671 0)
(10.1097 0.0507086 0)
(10.1299 0.0511514 0)
(10.1528 0.0542081 0)
(10.1719 0.0537352 0)
(10.197 0.0572449 0)
(10.2145 0.0563636 0)
(10.2427 0.0600696 0)
(10.2577 0.0588775 0)
(10.2897 0.0622052 0)
(10.3019 0.0612753 0)
(10.3379 0.0636967 0)
(10.3468 0.0638259 0)
(10.3861 0.0648901 0)
(10.3923 0.0666161 0)
(10.4339 0.0663635 0)
(10.4385 0.0696393 0)
(10.4802 0.0683314 0)
(10.4859 0.0729404 0)
(10.5246 0.0709102 0)
(10.5344 0.0766186 0)
(10.5674 0.0744145 0)
(10.5827 0.0805988 0)
(10.6095 0.0793144 0)
(10.6297 0.0851182 0)
(10.6511 0.0856594 0)
(10.6753 0.0908606 0)
(10.6917 0.0933595 0)
(10.7192 0.0984378 0)
(10.7317 0.103013 0)
(10.7606 0.107851 0)
(10.7717 0.115448 0)
(10.7991 0.119653 0)
(10.8108 0.130699 0)
(10.8359 0.135507 0)
(10.848 0.148547 0)
(10.8713 0.15653 0)
(10.8839 0.170067 0)
(10.9049 0.18297 0)
(10.919 0.196768 0)
(10.9368 0.215663 0)
(10.953 0.229816 0)
(10.9687 0.255408 0)
(10.9854 0.271293 0)
(11.002 0.302348 0)
(11.0163 0.323412 0)
(11.0373 0.357341 0)
(11.0473 0.387664 0)
(11.0739 0.421361 0)
(11.0802 0.465872 0)
(11.1109 0.495824 0)
(11.1168 0.55753 0)
(11.1459 0.585471 0)
(11.1584 0.661112 0)
(11.1766 0.693449 0)
(11.2035 0.780796 0)
(11.201 0.821233 0)
(11.2476 0.921425 0)
(11.2171 0.976693 0)
(11.2839 1.08747 0)
(11.2217 1.16923 0)
(11.305 1.28949 0)
(11.2106 1.40847 0)
(11.3018 1.53919 0)
(11.1869 1.70322 0)
(11.2595 1.84323 0)
(11.1497 2.05928 0)
(11.1752 2.1938 0)
(11.0756 2.46847 0)
(11.0517 2.58759 0)
(10.9266 2.89709 0)
(10.8679 3.0335 0)
(10.6828 3.29311 0)
(9.99981 0.00268229 0)
(10.0035 0.00816111 0)
(10.0096 0.0128827 0)
(10.0199 0.0177425 0)
(10.032 0.0214809 0)
(10.0474 0.0245397 0)
(10.0645 0.0273771 0)
(10.0833 0.0284724 0)
(10.1042 0.0311079 0)
(10.1236 0.0307895 0)
(10.1469 0.0334428 0)
(10.1652 0.0325269 0)
(10.1913 0.0353522 0)
(10.2077 0.0344667 0)
(10.2369 0.0372097 0)
(10.2509 0.0364778 0)
(10.2836 0.0387053 0)
(10.2952 0.0386592 0)
(10.3311 0.0397955 0)
(10.3408 0.0411926 0)
(10.3786 0.0406799 0)
(10.3871 0.0441823 0)
(10.4258 0.0418358 0)
(10.434 0.0476345 0)
(10.4722 0.043431 0)
(10.4815 0.0516027 0)
(10.5171 0.0456926 0)
(10.5301 0.0559915 0)
(10.5602 0.0492098 0)
(10.579 0.0604284 0)
(10.6023 0.0547294 0)
(10.6271 0.0649057 0)
(10.6437 0.0623805 0)
(10.6743 0.070163 0)
(10.6839 0.0719436 0)
(10.7209 0.0769748 0)
(10.7229 0.0837046 0)
(10.7657 0.0856838 0)
(10.7616 0.0981076 0)
(10.8079 0.0972231 0)
(10.8004 0.114743 0)
(10.8478 0.113531 0)
(10.8385 0.133107 0)
(10.8862 0.135769 0)
(10.8759 0.154603 0)
(10.9227 0.163216 0)
(10.9137 0.181786 0)
(10.9573 0.195882 0)
(10.9524 0.215463 0)
(10.9903 0.235801 0)
(10.9925 0.255828 0)
(11.0228 0.284249 0)
(11.0334 0.305158 0)
(11.0579 0.341027 0)
(11.0735 0.365527 0)
(11.0971 0.407952 0)
(11.1148 0.437231 0)
(11.1374 0.486904 0)
(11.161 0.523371 0)
(11.1776 0.577044 0)
(11.2103 0.628378 0)
(11.2198 0.68149 0)
(11.2603 0.752762 0)
(11.2616 0.807956 0)
(11.3103 0.89923 0)
(11.3006 0.963729 0)
(11.3549 1.07383 0)
(11.3352 1.15908 0)
(11.3879 1.28467 0)
(11.3621 1.4057 0)
(11.4047 1.5404 0)
(11.3715 1.71603 0)
(11.406 1.85152 0)
(11.3511 2.08344 0)
(11.3822 2.24078 0)
(11.2997 2.48372 0)
(11.3054 2.71242 0)
(11.2219 2.91081 0)
(11.1401 3.21266 0)
(11.0851 3.38712 0)
(9.99999 0.00118723 0)
(10.0029 0.00244632 0)
(10.0097 0.00460809 0)
(10.0186 0.00594904 0)
(10.0312 0.00766884 0)
(10.0452 0.00819359 0)
(10.0628 0.00990256 0)
(10.0804 0.0094597 0)
(10.1018 0.0117993 0)
(10.1204 0.0102537 0)
(10.1439 0.0130847 0)
(10.1624 0.0109764 0)
(10.1879 0.0140753 0)
(10.2055 0.0121631 0)
(10.2328 0.0149255 0)
(10.2493 0.0136862 0)
(10.2788 0.0156617 0)
(10.2944 0.0156584 0)
(10.3257 0.0162795 0)
(10.3406 0.0181422 0)
(10.3728 0.0169079 0)
(10.3877 0.021154 0)
(10.4199 0.0180602 0)
(10.4349 0.024444 0)
(10.4665 0.0200994 0)
(10.4827 0.0279572 0)
(10.5115 0.0232069 0)
(10.5321 0.031859 0)
(10.5543 0.0275736 0)
(10.5826 0.0362529 0)
(10.5958 0.0335336 0)
(10.6326 0.0413 0)
(10.6369 0.0411793 0)
(10.6814 0.0476952 0)
(10.6771 0.0503164 0)
(10.7297 0.0562952 0)
(10.7165 0.0610776 0)
(10.7761 0.0672586 0)
(10.7567 0.0744361 0)
(10.8186 0.0805852 0)
(10.7988 0.0911963 0)
(10.8579 0.0971109 0)
(10.8414 0.111053 0)
(10.8959 0.118517 0)
(10.8829 0.134162 0)
(10.934 0.145247 0)
(10.9235 0.16258 0)
(10.9721 0.176531 0)
(10.964 0.198469 0)
(11.0105 0.213254 0)
(11.0058 0.24147 0)
(11.0484 0.258927 0)
(11.0514 0.290534 0)
(11.0856 0.315416 0)
(11.1009 0.348911 0)
(11.1255 0.380236 0)
(11.1512 0.421901 0)
(11.1712 0.453797 0)
(11.2026 0.509041 0)
(11.2214 0.543062 0)
(11.2574 0.609212 0)
(11.2753 0.651435 0)
(11.3149 0.729199 0)
(11.3326 0.78045 0)
(11.3741 0.87394 0)
(11.3904 0.941088 0)
(11.4349 1.04505 0)
(11.4436 1.14579 0)
(11.4965 1.25439 0)
(11.486 1.39662 0)
(11.5527 1.52735 0)
(11.5189 1.68932 0)
(11.5833 1.88389 0)
(11.5456 2.03564 0)
(11.5709 2.30954 0)
(11.5498 2.46981 0)
(11.5124 2.76683 0)
(11.4946 2.99548 0)
(11.3985 3.25285 0)
(11.3491 3.54173 0)
(10.0007 -0.000170559 0)
(10.0022 -0.0031857 0)
(10.0108 -0.00352865 0)
(10.0178 -0.00557236 0)
(10.0322 -0.00612752 0)
(10.0442 -0.00774343 0)
(10.0637 -0.00765576 0)
(10.0798 -0.00912469 0)
(10.1024 -0.00775846 0)
(10.1201 -0.00996759 0)
(10.144 -0.00748832 0)
(10.1627 -0.0103761 0)
(10.1874 -0.00721674 0)
(10.2065 -0.0101842 0)
(10.2318 -0.00721667 0)
(10.2509 -0.00932289 0)
(10.2776 -0.00723253 0)
(10.2965 -0.00759135 0)
(10.3242 -0.00714892 0)
(10.3434 -0.00519468 0)
(10.3709 -0.00670076 0)
(10.3916 -0.00237035 0)
(10.4172 -0.00537149 0)
(10.4403 0.000574408 0)
(10.4631 -0.00292165 0)
(10.4893 0.0038135 0)
(10.5081 0.000531759 0)
(10.5395 0.00781111 0)
(10.5513 0.00500626 0)
(10.5906 0.0127348 0)
(10.5934 0.0108971 0)
(10.6409 0.0186182 0)
(10.636 0.0184278 0)
(10.6893 0.0257389 0)
(10.6792 0.027903 0)
(10.7361 0.0344123 0)
(10.7221 0.0400261 0)
(10.7814 0.0444158 0)
(10.7655 0.0556454 0)
(10.8239 0.0560946 0)
(10.8107 0.0748918 0)
(10.863 0.0712153 0)
(10.8574 0.0963732 0)
(10.9004 0.0925091 0)
(10.9041 0.119116 0)
(10.9378 0.120783 0)
(10.9498 0.14547 0)
(10.9771 0.154178 0)
(10.9941 0.178815 0)
(11.0191 0.191947 0)
(11.038 0.221015 0)
(11.0638 0.234927 0)
(11.0834 0.272511 0)
(11.111 0.285982 0)
(11.1319 0.331981 0)
(11.1608 0.349575 0)
(11.1851 0.399335 0)
(11.2134 0.42657 0)
(11.2442 0.479412 0)
(11.2697 0.517344 0)
(11.3088 0.574059 0)
(11.3315 0.62875 0)
(11.3788 0.684501 0)
(11.3982 0.764231 0)
(11.4554 0.822478 0)
(11.4692 0.922074 0)
(11.5338 1.00376 0)
(11.5492 1.10707 0)
(11.6072 1.23709 0)
(11.6349 1.34096 0)
(11.674 1.51764 0)
(11.716 1.65609 0)
(11.7322 1.84289 0)
(11.7716 2.06657 0)
(11.7741 2.24131 0)
(11.7886 2.54137 0)
(11.7628 2.74815 0)
(11.7587 3.06355 0)
(11.6639 3.32098 0)
(11.6276 3.65164 0)
(10.0007 -0.00201778 0)
(10.0024 -0.00854152 0)
(10.0116 -0.0119942 0)
(10.0186 -0.0172047 0)
(10.0336 -0.020233 0)
(10.0458 -0.023776 0)
(10.0662 -0.0254973 0)
(10.0823 -0.0274719 0)
(10.1056 -0.0278941 0)
(10.1231 -0.0295784 0)
(10.1474 -0.0289739 0)
(10.166 -0.0308371 0)
(10.1906 -0.0296434 0)
(10.21 -0.0316012 0)
(10.2349 -0.0304194 0)
(10.255 -0.0316184 0)
(10.2807 -0.0308575 0)
(10.301 -0.0305599 0)
(10.3274 -0.0309181 0)
(10.3484 -0.0285742 0)
(10.3741 -0.0305763 0)
(10.3972 -0.0258329 0)
(10.4206 -0.0295141 0)
(10.4462 -0.0226875 0)
(10.4672 -0.0273116 0)
(10.495 -0.0193206 0)
(10.5137 -0.0236411 0)
(10.5443 -0.0156621 0)
(10.5592 -0.0182109 0)
(10.5943 -0.0116489 0)
(10.604 -0.0107325 0)
(10.6433 -0.00700794 0)
(10.6496 -0.00134311 0)
(10.6902 -0.00094256 0)
(10.6961 0.00947885 0)
(10.736 0.00775299 0)
(10.7416 0.0214615 0)
(10.7818 0.0195013 0)
(10.7859 0.0355624 0)
(10.8273 0.0336173 0)
(10.8303 0.0533807 0)
(10.8711 0.0497795 0)
(10.8754 0.0753382 0)
(10.9137 0.0700681 0)
(10.9212 0.0993709 0)
(10.9557 0.0977425 0)
(10.9683 0.125011 0)
(10.9976 0.131918 0)
(11.0163 0.156827 0)
(11.0419 0.169196 0)
(11.0643 0.198045 0)
(11.0899 0.211923 0)
(11.1141 0.24557 0)
(11.1407 0.265307 0)
(11.1681 0.299578 0)
(11.1947 0.328217 0)
(11.2276 0.365885 0)
(11.2525 0.399685 0)
(11.2944 0.446538 0)
(11.315 0.483991 0)
(11.3681 0.543257 0)
(11.3867 0.583819 0)
(11.4463 0.661807 0)
(11.4704 0.702914 0)
(11.5298 0.806895 0)
(11.5656 0.853227 0)
(11.6208 0.976663 0)
(11.6687 1.05748 0)
(11.723 1.17462 0)
(11.7725 1.32129 0)
(11.8362 1.43826 0)
(11.8715 1.62989 0)
(11.9439 1.80611 0)
(11.966 1.99879 0)
(12.0236 2.26271 0)
(12.0257 2.48879 0)
(12.0602 2.7817 0)
(12.01 3.08572 0)
(12.0194 3.41165 0)
(11.8724 3.70199 0)
(9.99991 -0.00397777 0)
(10.0037 -0.0144291 0)
(10.012 -0.0207912 0)
(10.0209 -0.0300117 0)
(10.0359 -0.0346239 0)
(10.0497 -0.0409587 0)
(10.071 -0.0432695 0)
(10.0875 -0.046491 0)
(10.1119 -0.0479785 0)
(10.1288 -0.0493187 0)
(10.1545 -0.0507144 0)
(10.1721 -0.0512065 0)
(10.1978 -0.0525081 0)
(10.2165 -0.0530713 0)
(10.2422 -0.0538179 0)
(10.2618 -0.0542683 0)
(10.2886 -0.0543239 0)
(10.3079 -0.0541742 0)
(10.3361 -0.0542538 0)
(10.3551 -0.0528753 0)
(10.3838 -0.0537716 0)
(10.4035 -0.0505903 0)
(10.4312 -0.0526272 0)
(10.4526 -0.0477441 0)
(10.4785 -0.050244 0)
(10.5017 -0.0447571 0)
(10.5257 -0.0460042 0)
(10.5512 -0.0417161 0)
(10.5725 -0.0397024 0)
(10.6009 -0.0382211 0)
(10.619 -0.0317761 0)
(10.6497 -0.0331781 0)
(10.6666 -0.023046 0)
(10.6965 -0.0252881 0)
(10.7152 -0.0139076 0)
(10.7423 -0.0140632 0)
(10.7627 -0.00388359 0)
(10.7891 0.000190556 0)
(10.8079 0.00855803 0)
(10.8373 0.016095 0)
(10.8515 0.0257243 0)
(10.8857 0.0323324 0)
(10.8952 0.0492396 0)
(10.9336 0.0493629 0)
(10.9399 0.0777303 0)
(10.9807 0.0721332 0)
(10.9868 0.105908 0)
(11.0266 0.10607 0)
(11.0378 0.132767 0)
(11.0715 0.149604 0)
(11.0936 0.165401 0)
(11.1171 0.195337 0)
(11.1527 0.211175 0)
(11.168 0.243343 0)
(11.2128 0.267558 0)
(11.2273 0.300448 0)
(11.2752 0.333036 0)
(11.2944 0.366938 0)
(11.344 0.413214 0)
(11.3693 0.444504 0)
(11.4199 0.505641 0)
(11.4564 0.546466 0)
(11.5027 0.605214 0)
(11.5553 0.680567 0)
(11.602 0.723015 0)
(11.658 0.840801 0)
(11.7245 0.885086 0)
(11.771 1.01922 0)
(11.8577 1.11409 0)
(11.9054 1.23617 0)
(11.9978 1.39817 0)
(12.0497 1.54943 0)
(12.1443 1.72948 0)
(12.1906 1.97436 0)
(12.2715 2.17634 0)
(12.3095 2.46757 0)
(12.3519 2.78607 0)
(12.347 3.07001 0)
(12.3406 3.48269 0)
(12.2698 3.83731 0)
(9.99873 -0.00696919 0)
(10.0057 -0.0198685 0)
(10.0124 -0.031638 0)
(10.0248 -0.0431423 0)
(10.0393 -0.050857 0)
(10.0568 -0.0585554 0)
(10.0779 -0.0618132 0)
(10.0967 -0.0660164 0)
(10.1207 -0.0678448 0)
(10.1391 -0.0698002 0)
(10.1639 -0.071829 0)
(10.183 -0.072546 0)
(10.2073 -0.0748188 0)
(10.2279 -0.0753956 0)
(10.2522 -0.0768132 0)
(10.2738 -0.077544 0)
(10.2994 -0.0774116 0)
(10.3203 -0.0784332 0)
(10.3476 -0.0769707 0)
(10.3678 -0.0781919 0)
(10.3958 -0.0759375 0)
(10.4166 -0.0768216 0)
(10.4437 -0.0744901 0)
(10.4658 -0.0742813 0)
(10.4918 -0.0725172 0)
(10.515 -0.0705578 0)
(10.5402 -0.0696392 0)
(10.5645 -0.065745 0)
(10.5881 -0.0653197 0)
(10.6147 -0.0602489 0)
(10.6355 -0.0588835 0)
(10.6647 -0.0541215 0)
(10.6833 -0.0503163 0)
(10.7132 -0.0462568 0)
(10.7324 -0.0405558 0)
(10.7603 -0.0351777 0)
(10.7813 -0.0303483 0)
(10.808 -0.0200979 0)
(10.8281 -0.0192249 0)
(10.8574 -0.00183034 0)
(10.8733 -0.00451327 0)
(10.9076 0.017001 0)
(10.9185 0.0167268 0)
(10.9571 0.0357496 0)
(10.966 0.0435523 0)
(11.0053 0.0588644 0)
(11.0154 0.0718124 0)
(11.0549 0.0893523 0)
(11.066 0.102663 0)
(11.1069 0.125029 0)
(11.1201 0.141019 0)
(11.1588 0.16365 0)
(11.1821 0.1875 0)
(11.2121 0.20949 0)
(11.2479 0.239246 0)
(11.2755 0.266992 0)
(11.3142 0.296673 0)
(11.3485 0.337401 0)
(11.3915 0.362925 0)
(11.4231 0.42054 0)
(11.4864 0.44415 0)
(11.5053 0.515203 0)
(11.5912 0.549675 0)
(11.609 0.620083 0)
(11.7024 0.688602 0)
(11.7362 0.745764 0)
(11.829 0.854102 0)
(11.8857 0.925227 0)
(11.975 1.03789 0)
(12.0604 1.17549 0)
(12.1386 1.28677 0)
(12.2587 1.46505 0)
(12.3224 1.66858 0)
(12.4528 1.8306 0)
(12.5227 2.14576 0)
(12.6158 2.39282 0)
(12.6724 2.70218 0)
(12.7488 3.13226 0)
(12.6775 3.45354 0)
(12.7411 3.95303 0)
(9.99775 -0.0106142 0)
(10.008 -0.026635 0)
(10.013 -0.0445517 0)
(10.0308 -0.0585466 0)
(10.0447 -0.0683509 0)
(10.0679 -0.0782143 0)
(10.0881 -0.079951 0)
(10.1105 -0.0872978 0)
(10.1333 -0.0863793 0)
(10.1537 -0.0917754 0)
(10.1776 -0.0918863 0)
(10.1982 -0.0950327 0)
(10.2209 -0.0966515 0)
(10.2443 -0.0982276 0)
(10.2659 -0.0997838 0)
(10.2917 -0.100498 0)
(10.3135 -0.101072 0)
(10.3393 -0.101432 0)
(10.3622 -0.10098 0)
(10.3873 -0.101576 0)
(10.4111 -0.0997852 0)
(10.4362 -0.101015 0)
(10.4601 -0.0979899 0)
(10.485 -0.0989949 0)
(10.5101 -0.0962326 0)
(10.5335 -0.0949422 0)
(10.5605 -0.0940433 0)
(10.5827 -0.0897279 0)
(10.6097 -0.0897608 0)
(10.6336 -0.0848873 0)
(10.6575 -0.0821108 0)
(10.6853 -0.0803921 0)
(10.7053 -0.0716023 0)
(10.7357 -0.0744757 0)
(10.755 -0.0597622 0)
(10.7835 -0.0650751 0)
(10.8066 -0.0482961 0)
(10.8294 -0.0499824 0)
(10.8587 -0.038736 0)
(10.8755 -0.0278648 0)
(10.9098 -0.0298127 0)
(10.9228 -0.00263394 0)
(10.9604 -0.0141274 0)
(10.9709 0.0176409 0)
(11.012 0.015636 0)
(11.0197 0.0308973 0)
(11.0631 0.0549575 0)
(11.0737 0.0502964 0)
(11.1111 0.0898843 0)
(11.136 0.0861364 0)
(11.1582 0.119643 0)
(11.1996 0.131622 0)
(11.2175 0.156914 0)
(11.2574 0.179402 0)
(11.29 0.203917 0)
(11.3203 0.233676 0)
(11.3645 0.259913 0)
(11.3974 0.293178 0)
(11.4456 0.33379 0)
(11.4814 0.354534 0)
(11.5445 0.426047 0)
(11.5747 0.431506 0)
(11.6561 0.523111 0)
(11.6907 0.54513 0)
(11.7793 0.623223 0)
(11.8326 0.688686 0)
(11.9242 0.76871 0)
(11.9974 0.830495 0)
(12.1072 0.989963 0)
(12.1831 1.01235 0)
(12.3262 1.23741 0)
(12.4147 1.33102 0)
(12.5513 1.51274 0)
(12.7051 1.7799 0)
(12.7682 1.95677 0)
(12.9985 2.30544 0)
(12.9844 2.65607 0)
(13.1851 3.00059 0)
(13.1444 3.55105 0)
(13.1958 3.95388 0)
(9.99605 -0.0146499 0)
(10.0117 -0.0364566 0)
(10.0151 -0.0610732 0)
(10.0407 -0.0769925 0)
(10.0548 -0.0894874 0)
(10.0847 -0.0991966 0)
(10.1046 -0.101122 0)
(10.13 -0.108871 0)
(10.1528 -0.107504 0)
(10.1735 -0.114045 0)
(10.1983 -0.114246 0)
(10.2182 -0.118226 0)
(10.2424 -0.120219 0)
(10.2652 -0.121892 0)
(10.2882 -0.123835 0)
(10.3135 -0.124184 0)
(10.3368 -0.125454 0)
(10.3614 -0.125014 0)
(10.3864 -0.125588 0)
(10.4097 -0.125552 0)
(10.4358 -0.123921 0)
(10.4592 -0.126312 0)
(10.4852 -0.120778 0)
(10.5086 -0.126192 0)
(10.5355 -0.117407 0)
(10.558 -0.123658 0)
(10.5859 -0.114445 0)
(10.6085 -0.118505 0)
(10.6348 -0.111134 0)
(10.6604 -0.111871 0)
(10.683 -0.105812 0)
(10.7122 -0.104998 0)
(10.7322 -0.0970385 0)
(10.7614 -0.0982702 0)
(10.7846 -0.0845001 0)
(10.8064 -0.0905933 0)
(10.8406 -0.0701562 0)
(10.8484 -0.0784483 0)
(10.8973 -0.0575632 0)
(10.8919 -0.0586745 0)
(10.9499 -0.0473155 0)
(10.9413 -0.0336618 0)
(10.9972 -0.0330035 0)
(10.9951 -0.0110502 0)
(11.0444 -0.00752138 0)
(11.048 0.00639532 0)
(11.0967 0.026713 0)
(11.1016 0.0280577 0)
(11.1483 0.0595172 0)
(11.1645 0.0604211 0)
(11.1952 0.0924065 0)
(11.2352 0.0965907 0)
(11.2521 0.135015 0)
(11.298 0.133592 0)
(11.3287 0.185391 0)
(11.362 0.181449 0)
(11.4078 0.234943 0)
(11.4489 0.24498 0)
(11.4841 0.288869 0)
(11.5523 0.318953 0)
(11.5788 0.357314 0)
(11.6594 0.398895 0)
(11.7026 0.447901 0)
(11.7756 0.487928 0)
(11.8533 0.55807 0)
(11.9186 0.609506 0)
(12.0212 0.670704 0)
(12.1106 0.787364 0)
(12.2064 0.805591 0)
(12.358 0.999434 0)
(12.4304 1.02716 0)
(12.6468 1.23595 0)
(12.7351 1.37777 0)
(12.942 1.55112 0)
(13.1212 1.87754 0)
(13.2526 2.08069 0)
(13.4829 2.5201 0)
(13.5892 2.9553 0)
(13.6867 3.41457 0)
(13.7741 4.10193 0)
(9.99323 -0.0204996 0)
(10.0167 -0.0500872 0)
(10.0216 -0.0825179 0)
(10.0556 -0.0989467 0)
(10.0745 -0.115116 0)
(10.1083 -0.122077 0)
(10.132 -0.126567 0)
(10.1566 -0.132439 0)
(10.1827 -0.133426 0)
(10.1999 -0.139723 0)
(10.2292 -0.141522 0)
(10.2445 -0.145776 0)
(10.2741 -0.148012 0)
(10.292 -0.150215 0)
(10.3198 -0.151421 0)
(10.3414 -0.152481 0)
(10.367 -0.15351 0)
(10.3904 -0.152387 0)
(10.4141 -0.15517 0)
(10.4398 -0.151481 0)
(10.4606 -0.154929 0)
(10.4899 -0.151468 0)
(10.507 -0.152041 0)
(10.5393 -0.15147 0)
(10.5543 -0.148315 0)
(10.5875 -0.148783 0)
(10.602 -0.145729 0)
(10.6351 -0.142414 0)
(10.6495 -0.143745 0)
(10.6817 -0.133823 0)
(10.6976 -0.139933 0)
(10.7255 -0.125296 0)
(10.7479 -0.131458 0)
(10.7654 -0.119192 0)
(10.8011 -0.115769 0)
(10.8015 -0.116544 0)
(10.8559 -0.0939466 0)
(10.8369 -0.112504 0)
(10.9079 -0.0739352 0)
(10.8782 -0.0970179 0)
(10.9502 -0.064619 0)
(10.9312 -0.0649952 0)
(10.9832 -0.0635553 0)
(10.9893 -0.0264215 0)
(11.0213 -0.0543264 0)
(11.0378 0.00253158 0)
(11.0763 -0.0272085 0)
(11.0776 0.0221154 0)
(11.1345 0.0080284 0)
(11.1346 0.0467905 0)
(11.175 0.0421026 0)
(11.2162 0.0806046 0)
(11.2156 0.0786282 0)
(11.2957 0.118335 0)
(11.2839 0.120122 0)
(11.3661 0.165011 0)
(11.3686 0.163737 0)
(11.4532 0.22156 0)
(11.4588 0.213985 0)
(11.557 0.285989 0)
(11.5702 0.27486 0)
(11.6715 0.361947 0)
(11.7054 0.344788 0)
(11.8138 0.456927 0)
(11.857 0.420922 0)
(11.9949 0.581132 0)
(12.0391 0.519202 0)
(12.2044 0.702185 0)
(12.2962 0.714226 0)
(12.415 0.784868 0)
(12.6532 0.982924 0)
(12.696 0.99086 0)
(13.0118 1.20771 0)
(13.1654 1.39341 0)
(13.3858 1.55281 0)
(13.6799 1.92388 0)
(13.887 2.23758 0)
(14.1439 2.72666 0)
(14.3182 3.3731 0)
(14.419 3.96275 0)
(9.99158 -0.0270366 0)
(10.0244 -0.0690537 0)
(10.0365 -0.10046 0)
(10.0794 -0.116615 0)