/*--------------------------------*- C++ -*----------------------------------*\
| =========                 |                                                 |
| \\      /  F ield         | OpenFOAM: The Open Source CFD Toolbox           |
|  \\    /   O peration     | Version:  2306                                  |
|   \\  /    A nd           | Website:  www.openfoam.com                      |
|    \\/     M anipulation  |                                                 |
\*---------------------------------------------------------------------------*/
FoamFile
{
    version     2.0;
    format      ascii;
    arch        "LSB;label=32;scalar=64";
    class       volScalarField;
    location    "0.175";
    object      p;
}
// * * * * * * * * * * * * * * * * * * * * * * * * * * * * * * * * * * * * * //

dimensions      [0 2 -2 0 0 0 0];

internalField   nonuniform List<scalar> 
17600
(
258.174
256.13
254.353
253.122
252.359
251.852
251.435
251.028
250.61
250.186
249.766
249.354
248.95
248.553
248.162
247.775
247.394
247.022
246.66
246.314
245.986
245.678
245.394
245.135
244.902
244.695
244.512
244.353
244.215
244.097
243.994
243.904
243.825
243.755
243.69
243.629
243.57
243.512
243.455
243.397
243.338
243.277
243.215
243.151
243.086
243.019
242.951
242.881
242.811
242.739
242.668
242.595
242.523
242.451
242.378
242.306
242.235
242.164
242.093
242.024
241.955
241.887
241.82
241.754
241.689
241.625
241.562
241.501
241.441
241.382
241.325
241.269
241.214
241.161
241.11
241.06
241.012
240.966
240.922
240.879
240.838
240.799
240.763
240.728
240.696
240.666
240.638
240.613
240.591
240.571
240.554
240.54
240.529
240.521
240.516
240.515
240.517
240.523
240.533
240.546
240.564
240.586
240.612
240.642
240.678
240.718
240.762
240.812
240.867
240.927
240.993
241.064
241.14
241.222
241.309
241.402
241.501
241.605
241.714
241.829
241.949
242.074
242.203
242.337
242.475
242.617
242.762
242.91
243.059
243.211
243.363
243.515
243.666
243.817
243.965
244.11
244.252
244.39
244.523
244.651
244.774
244.89
244.999
245.102
245.197
245.285
245.366
245.441
245.508
245.57
245.625
245.674
245.717
245.756
245.79
245.821
245.848
245.873
245.893
245.908
255.445
254.675
253.748
252.884
252.194
251.671
251.251
250.869
250.489
250.1
249.706
249.312
248.922
248.537
248.158
247.784
247.416
247.057
246.708
246.373
246.054
245.755
245.477
245.221
244.989
244.782
244.597
244.435
244.294
244.17
244.062
243.968
243.883
243.807
243.737
243.671
243.608
243.546
243.485
243.424
243.362
243.299
243.235
243.169
243.102
243.034
242.965
242.894
242.823
242.751
242.678
242.606
242.533
242.46
242.387
242.315
242.243
242.172
242.101
242.031
241.962
241.894
241.827
241.761
241.695
241.632
241.569
241.507
241.447
241.388
241.331
241.275
241.22
241.167
241.116
241.066
241.018
240.972
240.927
240.884
240.844
240.805
240.768
240.734
240.701
240.671
240.644
240.619
240.596
240.576
240.56
240.546
240.535
240.527
240.522
240.521
240.523
240.529
240.539
240.553
240.571
240.593
240.619
240.65
240.686
240.726
240.771
240.821
240.877
240.938
241.004
241.075
241.152
241.235
241.323
241.416
241.516
241.621
241.731
241.847
241.968
242.094
242.224
242.359
242.498
242.641
242.787
242.935
243.086
243.238
243.39
243.543
243.694
243.844
243.991
244.136
244.277
244.413
244.545
244.671
244.792
244.907
245.015
245.117
245.211
245.299
245.379
245.451
245.518
245.578
245.631
245.679
245.721
245.758
245.791
245.82
245.846
245.87
245.89
245.906
254.14
253.791
253.262
252.649
252.057
251.543
251.111
250.73
250.37
250.008
249.641
249.268
248.897
248.529
248.167
247.811
247.462
247.121
246.791
246.473
246.169
245.882
245.613
245.364
245.135
244.927
244.74
244.572
244.423
244.29
244.172
244.066
243.971
243.885
243.805
243.73
243.659
243.59
243.522
243.455
243.387
243.32
243.252
243.183
243.114
243.044
242.973
242.901
242.829
242.756
242.683
242.61
242.537
242.464
242.391
242.319
242.247
242.175
242.104
242.034
241.965
241.897
241.829
241.763
241.698
241.634
241.571
241.509
241.448
241.389
241.331
241.275
241.22
241.167
241.115
241.065
241.016
240.97
240.925
240.882
240.84
240.801
240.764
240.729
240.696
240.666
240.638
240.612
240.589
240.569
240.551
240.536
240.525
240.516
240.511
240.509
240.511
240.516
240.525
240.538
240.555
240.576
240.601
240.631
240.666
240.705
240.749
240.799
240.853
240.913
240.978
241.048
241.124
241.206
241.294
241.387
241.485
241.59
241.7
241.815
241.936
242.062
242.193
242.328
242.468
242.612
242.759
242.909
243.062
243.216
243.371
243.526
243.681
243.834
243.986
244.134
244.279
244.419
244.554
244.683
244.806
244.922
245.031
245.132
245.225
245.311
245.39
245.462
245.528
245.588
245.642
245.689
245.73
245.766
245.797
245.824
245.849
245.872
245.893
245.912
253.237
253.045
252.712
252.276
251.801
251.345
250.934
250.566
250.223
249.886
249.546
249.201
248.853
248.507
248.165
247.828
247.499
247.178
246.866
246.565
246.277
246.003
245.744
245.502
245.278
245.072
244.884
244.713
244.558
244.419
244.292
244.178
244.074
243.978
243.889
243.805
243.725
243.648
243.573
243.499
243.426
243.353
243.281
243.209
243.136
243.063
242.99
242.917
242.843
242.769
242.695
242.62
242.546
242.472
242.399
242.326
242.253
242.181
242.11
242.039
241.97
241.901
241.833
241.766
241.7
241.635
241.572
241.51
241.449
241.389
241.33
241.273
241.218
241.164
241.111
241.06
241.011
240.963
240.918
240.874
240.832
240.791
240.753
240.717
240.683
240.652
240.622
240.595
240.571
240.549
240.53
240.514
240.501
240.491
240.484
240.48
240.48
240.483
240.491
240.501
240.516
240.535
240.558
240.586
240.618
240.655
240.696
240.743
240.794
240.851
240.913
240.981
241.054
241.133
241.217
241.307
241.403
241.504
241.611
241.724
241.842
241.966
242.095
242.228
242.367
242.51
242.656
242.806
242.959
243.114
243.271
243.429
243.588
243.746
243.902
244.056
244.208
244.355
244.498
244.636
244.767
244.892
245.01
245.12
245.222
245.315
245.4
245.475
245.542
245.601
245.653
245.698
245.737
245.772
245.803
245.83
245.855
245.878
245.901
245.923
252.55
252.426
252.198
251.881
251.509
251.124
250.754
250.408
250.083
249.767
249.451
249.131
248.807
248.483
248.161
247.843
247.532
247.229
246.934
246.648
246.373
246.111
245.862
245.627
245.408
245.204
245.016
244.843
244.685
244.54
244.407
244.286
244.173
244.069
243.972
243.88
243.792
243.708
243.626
243.546
243.468
243.391
243.314
243.238
243.162
243.086
243.01
242.935
242.859
242.783
242.707
242.632
242.557
242.482
242.408
242.334
242.26
242.188
242.115
242.044
241.974
241.904
241.836
241.768
241.702
241.636
241.572
241.509
241.447
241.387
241.328
241.27
241.213
241.158
241.105
241.053
241.002
240.954
240.907
240.861
240.818
240.776
240.737
240.699
240.664
240.63
240.599
240.571
240.544
240.521
240.499
240.481
240.465
240.453
240.443
240.437
240.434
240.434
240.438
240.446
240.457
240.472
240.492
240.515
240.543
240.575
240.613
240.654
240.701
240.753
240.81
240.872
240.939
241.012
241.091
241.175
241.264
241.359
241.46
241.567
241.679
241.796
241.919
242.047
242.18
242.317
242.459
242.604
242.753
242.906
243.06
243.217
243.375
243.533
243.692
243.85
244.006
244.16
244.312
244.46
244.603
244.742
244.874
245
245.118
245.228
245.329
245.421
245.504
245.579
245.644
245.7
245.746
245.783
245.812
245.836
245.858
245.881
245.907
245.935
252.003
251.913
251.747
251.509
251.217
250.897
250.572
250.255
249.951
249.654
249.359
249.061
248.759
248.455
248.152
247.853
247.559
247.271
246.99
246.718
246.456
246.204
245.963
245.735
245.521
245.32
245.133
244.959
244.798
244.649
244.511
244.383
244.264
244.153
244.049
243.95
243.856
243.765
243.678
243.592
243.509
243.427
243.347
243.267
243.188
243.109
243.03
242.952
242.875
242.797
242.72
242.643
242.567
242.491
242.416
242.341
242.267
242.193
242.12
242.049
241.977
241.907
241.838
241.77
241.703
241.636
241.571
241.507
241.445
241.383
241.323
241.264
241.207
241.151
241.096
241.043
240.991
240.941
240.893
240.846
240.801
240.758
240.716
240.677
240.639
240.604
240.571
240.54
240.511
240.485
240.461
240.44
240.421
240.406
240.393
240.383
240.376
240.373
240.372
240.376
240.383
240.393
240.407
240.426
240.448
240.475
240.506
240.541
240.581
240.626
240.676
240.73
240.79
240.855
240.924
241
241.08
241.166
241.257
241.354
241.456
241.563
241.675
241.793
241.915
242.042
242.174
242.31
242.45
242.593
242.74
242.89
243.041
243.195
243.35
243.506
243.663
243.819
243.974
244.127
244.279
244.428
244.573
244.713
244.849
244.98
245.104
245.221
245.331
245.432
245.523
245.605
245.676
245.736
245.787
245.83
245.865
245.893
245.918
245.943
251.554
251.486
251.358
251.172
250.939
250.673
250.39
250.105
249.823
249.545
249.268
248.99
248.708
248.423
248.139
247.856
247.577
247.303
247.036
246.776
246.524
246.282
246.049
245.828
245.618
245.42
245.234
245.059
244.897
244.745
244.603
244.47
244.346
244.229
244.119
244.014
243.914
243.818
243.726
243.636
243.548
243.462
243.378
243.294
243.212
243.131
243.05
242.97
242.89
242.811
242.732
242.654
242.577
242.5
242.423
242.347
242.272
242.198
242.125
242.052
241.98
241.909
241.839
241.77
241.702
241.635
241.569
241.504
241.441
241.378
241.317
241.257
241.199
241.141
241.085
241.031
240.978
240.926
240.876
240.828
240.781
240.736
240.693
240.651
240.612
240.574
240.539
240.505
240.474
240.445
240.418
240.394
240.372
240.353
240.336
240.322
240.312
240.304
240.299
240.297
240.299
240.304
240.313
240.325
240.341
240.361
240.385
240.413
240.446
240.482
240.523
240.569
240.619
240.674
240.733
240.798
240.867
240.941
241.02
241.104
241.193
241.287
241.386
241.489
241.598
241.711
241.828
241.949
242.075
242.204
242.337
242.473
242.612
242.754
242.899
243.045
243.194
243.344
243.495
243.646
243.798
243.95
244.101
244.251
244.399
244.545
244.689
244.828
244.964
245.094
245.218
245.334
245.443
245.543
245.633
245.712
245.782
245.842
245.894
245.94
251.18
251.125
251.023
250.873
250.682
250.458
250.213
249.958
249.699
249.44
249.18
248.919
248.655
248.388
248.12
247.853
247.588
247.328
247.072
246.823
246.581
246.348
246.122
245.907
245.701
245.506
245.321
245.147
244.983
244.829
244.684
244.548
244.42
244.298
244.183
244.073
243.968
243.868
243.77
243.676
243.584
243.495
243.407
243.32
243.235
243.151
243.068
242.986
242.904
242.824
242.744
242.664
242.585
242.507
242.43
242.353
242.277
242.202
242.128
242.054
241.982
241.91
241.839
241.769
241.701
241.633
241.566
241.5
241.436
241.372
241.31
241.249
241.189
241.131
241.073
241.017
240.963
240.91
240.858
240.808
240.76
240.713
240.667
240.624
240.582
240.542
240.504
240.468
240.434
240.402
240.372
240.344
240.319
240.296
240.276
240.258
240.243
240.23
240.221
240.214
240.21
240.21
240.212
240.218
240.227
240.24
240.257
240.277
240.301
240.328
240.36
240.396
240.436
240.48
240.528
240.58
240.637
240.698
240.764
240.834
240.908
240.987
241.07
241.158
241.249
241.345
241.444
241.548
241.655
241.767
241.881
241.999
242.121
242.245
242.372
242.503
242.636
242.771
242.909
243.05
243.192
243.337
243.484
243.633
243.784
243.936
244.089
244.242
244.396
244.549
244.701
244.85
244.995
245.136
245.272
245.4
245.521
245.632
245.732
245.82
250.863
250.819
250.734
250.609
250.449
250.258
250.044
249.816
249.579
249.339
249.096
248.851
248.602
248.351
248.099
247.846
247.594
247.346
247.101
246.862
246.629
246.403
246.184
245.974
245.773
245.58
245.397
245.224
245.059
244.904
244.756
244.617
244.485
244.36
244.241
244.127
244.018
243.913
243.812
243.714
243.618
243.525
243.434
243.345
243.257
243.171
243.086
243.001
242.918
242.836
242.754
242.673
242.593
242.514
242.436
242.358
242.281
242.205
242.13
242.056
241.983
241.91
241.838
241.768
241.698
241.629
241.562
241.495
241.429
241.365
241.301
241.239
241.178
241.118
241.06
241.003
240.947
240.892
240.839
240.787
240.736
240.688
240.64
240.595
240.551
240.508
240.468
240.429
240.392
240.357
240.324
240.293
240.264
240.237
240.213
240.191
240.171
240.154
240.139
240.127
240.118
240.111
240.108
240.107
240.109
240.115
240.123
240.135
240.15
240.169
240.191
240.216
240.246
240.278
240.315
240.355
240.399
240.446
240.498
240.553
240.612
240.674
240.74
240.81
240.884
240.961
241.041
241.125
241.212
241.303
241.396
241.493
241.593
241.695
241.801
241.91
242.022
242.137
242.256
242.377
242.503
242.632
242.765
242.902
243.043
243.189
243.339
243.494
243.653
243.816
243.984
244.155
244.328
244.503
244.678
244.852
245.023
245.189
245.348
245.494
250.594
250.556
250.484
250.378
250.24
250.075
249.886
249.682
249.466
249.244
249.016
248.786
248.552
248.315
248.075
247.835
247.596
247.358
247.124
246.893
246.668
246.449
246.237
246.032
245.834
245.644
245.463
245.29
245.125
244.969
244.82
244.678
244.544
244.415
244.293
244.175
244.063
243.954
243.85
243.748
243.649
243.553
243.46
243.368
243.277
243.189
243.102
243.015
242.931
242.847
242.764
242.682
242.601
242.52
242.441
242.362
242.285
242.208
242.132
242.056
241.982
241.909
241.836
241.765
241.694
241.625
241.556
241.488
241.422
241.356
241.292
241.228
241.166
241.105
241.045
240.986
240.929
240.873
240.818
240.764
240.712
240.661
240.612
240.564
240.517
240.473
240.429
240.388
240.348
240.31
240.274
240.239
240.207
240.176
240.148
240.121
240.097
240.075
240.055
240.038
240.023
240.01
240
239.993
239.988
239.986
239.986
239.99
239.996
240.006
240.018
240.033
240.051
240.073
240.097
240.125
240.155
240.189
240.226
240.266
240.308
240.354
240.403
240.455
240.51
240.567
240.628
240.691
240.756
240.825
240.896
240.969
241.045
241.124
241.206
241.29
241.377
241.468
241.562
241.66
241.761
241.868
241.979
242.095
242.218
242.347
242.483
242.627
242.778
242.938
243.107
243.284
243.47
243.663
243.864
244.071
244.282
244.495
244.707
244.912
250.364
250.331
250.268
250.176
250.056
249.91
249.742
249.558
249.361
249.154
248.942
248.725
248.503
248.279
248.051
247.823
247.594
247.366
247.141
246.919
246.701
246.488
246.281
246.08
245.886
245.699
245.52
245.348
245.183
245.026
244.876
244.732
244.595
244.464
244.339
244.218
244.103
243.991
243.884
243.779
243.678
243.579
243.483
243.388
243.296
243.205
243.116
243.028
242.942
242.856
242.772
242.689
242.607
242.525
242.445
242.365
242.287
242.209
242.132
242.056
241.981
241.907
241.833
241.761
241.689
241.619
241.549
241.481
241.413
241.346
241.281
241.216
241.153
241.09
241.029
240.969
240.91
240.852
240.796
240.74
240.686
240.633
240.582
240.532
240.483
240.435
240.39
240.345
240.302
240.261
240.222
240.184
240.148
240.113
240.081
240.05
240.021
239.994
239.969
239.946
239.925
239.907
239.89
239.876
239.864
239.855
239.847
239.842
239.84
239.84
239.842
239.847
239.854
239.864
239.876
239.891
239.908
239.928
239.95
239.975
240.001
240.031
240.062
240.095
240.131
240.169
240.209
240.25
240.294
240.339
240.387
240.436
240.488
240.541
240.597
240.654
240.715
240.778
240.845
240.915
240.989
241.068
241.152
241.243
241.34
241.445
241.558
241.68
241.813
241.957
242.114
242.282
242.465
242.66
242.869
243.091
243.324
243.567
243.817
244.07
250.167
250.138
250.083
250.001
249.894
249.764
249.613
249.445
249.264
249.072
248.873
248.668
248.458
248.244
248.028
247.809
247.59
247.371
247.153
246.939
246.727
246.52
246.318
246.121
245.931
245.746
245.568
245.397
245.233
245.075
244.924
244.779
244.64
244.507
244.379
244.257
244.138
244.024
243.914
243.807
243.703
243.602
243.503
243.407
243.312
243.22
243.129
243.04
242.952
242.865
242.779
242.695
242.611
242.529
242.448
242.367
242.288
242.209
242.131
242.055
241.979
241.904
241.829
241.756
241.684
241.612
241.542
241.472
241.403
241.336
241.269
241.203
241.139
241.075
241.012
240.951
240.89
240.831
240.772
240.715
240.659
240.604
240.55
240.498
240.447
240.397
240.349
240.301
240.256
240.211
240.168
240.127
240.087
240.049
240.012
239.977
239.943
239.911
239.881
239.853
239.826
239.802
239.779
239.758
239.739
239.721
239.706
239.693
239.681
239.672
239.664
239.659
239.655
239.653
239.653
239.655
239.659
239.665
239.672
239.681
239.692
239.704
239.718
239.733
239.749
239.767
239.786
239.806
239.827
239.85
239.873
239.898
239.924
239.951
239.979
240.009
240.042
240.076
240.113
240.154
240.198
240.246
240.3
240.36
240.427
240.502
240.586
240.68
240.787
240.906
241.039
241.188
241.353
241.536
241.737
241.956
242.193
242.448
242.717
242.998
250
249.974
249.925
249.851
249.755
249.637
249.499
249.345
249.177
248.998
248.811
248.616
248.416
248.212
248.005
247.795
247.584
247.373
247.163
246.954
246.749
246.547
246.349
246.156
245.968
245.786
245.609
245.439
245.275
245.117
244.965
244.819
244.679
244.544
244.415
244.29
244.169
244.053
243.94
243.831
243.725
243.622
243.521
243.423
243.327
243.233
243.14
243.049
242.96
242.872
242.785
242.7
242.615
242.532
242.45
242.368
242.288
242.208
242.13
242.052
241.975
241.899
241.824
241.75
241.677
241.605
241.533
241.462
241.393
241.324
241.256
241.189
241.123
241.058
240.994
240.931
240.869
240.808
240.748
240.689
240.631
240.574
240.518
240.463
240.41
240.357
240.306
240.256
240.207
240.16
240.114
240.069
240.025
239.983
239.942
239.902
239.864
239.827
239.792
239.758
239.726
239.695
239.666
239.638
239.611
239.586
239.563
239.541
239.521
239.502
239.485
239.469
239.454
239.441
239.429
239.418
239.408
239.4
239.393
239.386
239.381
239.376
239.372
239.368
239.366
239.363
239.361
239.36
239.358
239.357
239.356
239.355
239.355
239.355
239.356
239.358
239.361
239.365
239.371
239.38
239.392
239.408
239.429
239.455
239.488
239.53
239.58
239.642
239.715
239.803
239.906
240.026
240.165
240.324
240.504
240.707
240.932
241.181
241.452
241.743
249.859
249.836
249.791
249.724
249.635
249.527
249.4
249.257
249.1
248.932
248.755
248.57
248.379
248.183
247.984
247.782
247.578
247.373
247.169
246.966
246.766
246.568
246.374
246.184
245.999
245.819
245.644
245.474
245.311
245.153
245
244.854
244.712
244.576
244.445
244.318
244.196
244.078
243.963
243.852
243.744
243.639
243.537
243.437
243.339
243.243
243.15
243.057
242.967
242.878
242.79
242.703
242.618
242.534
242.45
242.368
242.287
242.206
242.127
242.049
241.971
241.894
241.818
241.743
241.669
241.596
241.523
241.452
241.381
241.311
241.242
241.174
241.107
241.04
240.975
240.91
240.847
240.784
240.722
240.661
240.601
240.542
240.484
240.428
240.372
240.317
240.263
240.21
240.158
240.107
240.058
240.009
239.962
239.916
239.87
239.826
239.784
239.742
239.701
239.662
239.624
239.587
239.551
239.516
239.483
239.45
239.419
239.389
239.359
239.331
239.304
239.277
239.252
239.227
239.203
239.179
239.156
239.134
239.112
239.09
239.068
239.046
239.025
239.003
238.981
238.958
238.935
238.911
238.887
238.862
238.836
238.81
238.783
238.756
238.728
238.7
238.673
238.646
238.62
238.596
238.574
238.556
238.541
238.532
238.529
238.533
238.547
238.571
238.608
238.659
238.727
238.812
238.917
239.044
239.194
239.37
239.572
239.802
240.06
240.345
249.742
249.721
249.679
249.617
249.535
249.434
249.316
249.182
249.034
248.875
248.706
248.529
248.346
248.157
247.965
247.769
247.571
247.372
247.173
246.975
246.779
246.585
246.394
246.207
246.024
245.846
245.672
245.503
245.34
245.182
245.03
244.882
244.74
244.603
244.47
244.342
244.218
244.098
243.982
243.87
243.76
243.654
243.55
243.448
243.349
243.252
243.157
243.064
242.972
242.882
242.793
242.705
242.619
242.534
242.45
242.367
242.285
242.204
242.123
242.044
241.966
241.888
241.812
241.736
241.661
241.586
241.513
241.44
241.369
241.298
241.227
241.158
241.09
241.022
240.955
240.889
240.824
240.759
240.696
240.633
240.571
240.51
240.45
240.391
240.332
240.275
240.218
240.163
240.108
240.054
240.001
239.949
239.898
239.847
239.798
239.75
239.702
239.655
239.61
239.565
239.521
239.478
239.435
239.394
239.353
239.313
239.274
239.235
239.197
239.159
239.122
239.085
239.048
239.012
238.976
238.94
238.904
238.867
238.83
238.793
238.755
238.716
238.677
238.636
238.595
238.552
238.508
238.462
238.414
238.365
238.315
238.263
238.209
238.153
238.096
238.038
237.98
237.92
237.861
237.803
237.746
237.691
237.639
237.591
237.549
237.515
237.488
237.472
237.469
237.479
237.506
237.551
237.617
237.706
237.82
237.961
238.132
238.333
238.567
238.834
249.647
249.627
249.588
249.53
249.453
249.358
249.246
249.119
248.979
248.827
248.665
248.495
248.318
248.135
247.948
247.758
247.565
247.371
247.176
246.982
246.789
246.598
246.41
246.225
246.044
245.867
245.695
245.527
245.364
245.206
245.053
244.905
244.762
244.624
244.491
244.361
244.236
244.115
243.998
243.884
243.773
243.665
243.56
243.457
243.357
243.259
243.163
243.068
242.976
242.884
242.795
242.706
242.619
242.533
242.448
242.364
242.282
242.2
242.119
242.039
241.96
241.881
241.804
241.727
241.651
241.576
241.502
241.428
241.355
241.283
241.212
241.141
241.071
241.002
240.934
240.866
240.8
240.734
240.668
240.604
240.54
240.477
240.415
240.353
240.292
240.232
240.173
240.114
240.056
239.999
239.943
239.887
239.832
239.778
239.725
239.672
239.62
239.568
239.517
239.467
239.417
239.368
239.319
239.271
239.223
239.175
239.128
239.08
239.033
238.987
238.939
238.892
238.845
238.797
238.749
238.7
238.651
238.6
238.549
238.496
238.442
238.386
238.329
238.27
238.209
238.146
238.08
238.012
237.941
237.868
237.792
237.713
237.632
237.548
237.461
237.372
237.281
237.188
237.095
237
236.906
236.813
236.722
236.634
236.551
236.474
236.405
236.345
236.297
236.263
236.245
236.246
236.268
236.314
236.386
236.487
236.619
236.785
236.987
237.227
249.573
249.554
249.516
249.461
249.388
249.297
249.191
249.069
248.935
248.788
248.632
248.467
248.295
248.117
247.934
247.748
247.559
247.369
247.178
246.986
246.796
246.608
246.422
246.239
246.059
245.883
245.712
245.545
245.382
245.224
245.071
244.923
244.78
244.641
244.506
244.376
244.25
244.128
244.009
243.894
243.782
243.673
243.567
243.464
243.362
243.263
243.166
243.071
242.977
242.885
242.795
242.706
242.618
242.531
242.445
242.361
242.277
242.195
242.113
242.032
241.952
241.873
241.795
241.717
241.641
241.565
241.489
241.415
241.341
241.268
241.195
241.124
241.052
240.982
240.912
240.843
240.775
240.707
240.64
240.574
240.508
240.443
240.378
240.315
240.251
240.189
240.127
240.065
240.004
239.944
239.884
239.825
239.767
239.708
239.651
239.593
239.537
239.48
239.424
239.368
239.313
239.257
239.202
239.147
239.092
239.037
238.981
238.926
238.87
238.814
238.757
238.7
238.641
238.582
238.522
238.461
238.398
238.334
238.267
238.199
238.129
238.057
237.982
237.904
237.824
237.74
237.653
237.562
237.468
237.371
237.269
237.163
237.054
236.94
236.823
236.702
236.578
236.451
236.321
236.19
236.057
235.924
235.791
235.661
235.533
235.411
235.296
235.189
235.093
235.01
234.944
234.896
234.869
234.867
234.892
234.947
235.036
235.161
235.325
235.531
249.518
249.499
249.463
249.41
249.339
249.252
249.149
249.032
248.901
248.759
248.607
248.446
248.277
248.103
247.924
247.741
247.555
247.367
247.178
246.989
246.801
246.615
246.43
246.249
246.07
245.895
245.724
245.558
245.395
245.237
245.084
244.936
244.792
244.652
244.517
244.387
244.26
244.137
244.017
243.901
243.789
243.679
243.572
243.467
243.365
243.266
243.168
243.072
242.977
242.885
242.793
242.704
242.615
242.528
242.442
242.356
242.272
242.189
242.107
242.025
241.944
241.864
241.785
241.707
241.629
241.552
241.476
241.401
241.326
241.252
241.178
241.105
241.033
240.961
240.89
240.819
240.749
240.68
240.611
240.543
240.475
240.408
240.342
240.275
240.21
240.145
240.08
240.016
239.952
239.888
239.825
239.763
239.7
239.638
239.576
239.515
239.453
239.392
239.331
239.269
239.208
239.147
239.085
239.023
238.961
238.898
238.835
238.771
238.707
238.641
238.575
238.507
238.438
238.368
238.296
238.222
238.146
238.068
237.987
237.904
237.818
237.729
237.636
237.54
237.44
237.335
237.227
237.114
236.996
236.874
236.746
236.613
236.475
236.332
236.184
236.03
235.872
235.709
235.542
235.371
235.198
235.023
234.847
234.671
234.497
234.326
234.161
234.004
233.856
233.721
233.601
233.499
233.419
233.364
233.337
233.341
233.381
233.459
233.579
233.744
249.481
249.463
249.428
249.376
249.307
249.222
249.122
249.007
248.879
248.739
248.59
248.431
248.265
248.093
247.916
247.735
247.551
247.365
247.178
246.991
246.804
246.619
246.436
246.255
246.077
245.903
245.732
245.566
245.403
245.246
245.092
244.944
244.799
244.66
244.524
244.393
244.265
244.142
244.022
243.905
243.792
243.682
243.574
243.469
243.366
243.266
243.167
243.071
242.976
242.882
242.791
242.7
242.611
242.523
242.436
242.351
242.266
242.182
242.099
242.017
241.935
241.855
241.775
241.696
241.617
241.54
241.462
241.386
241.31
241.235
241.16
241.086
241.012
240.939
240.867
240.795
240.723
240.652
240.582
240.512
240.442
240.373
240.304
240.236
240.168
240.1
240.033
239.966
239.899
239.832
239.766
239.7
239.634
239.567
239.502
239.436
239.369
239.303
239.237
239.17
239.103
239.036
238.968
238.9
238.83
238.76
238.689
238.617
238.544
238.47
238.394
238.316
238.236
238.155
238.071
237.985
237.896
237.804
237.709
237.61
237.508
237.402
237.292
237.177
237.058
236.933
236.803
236.667
236.526
236.378
236.225
236.064
235.897
235.724
235.543
235.356
235.163
234.963
234.757
234.547
234.331
234.111
233.889
233.665
233.442
233.22
233.001
232.789
232.585
232.393
232.215
232.054
231.915
231.801
231.716
231.664
231.649
231.675
231.745
231.864
249.463
249.445
249.411
249.359
249.291
249.207
249.108
248.994
248.867
248.729
248.581
248.424
248.259
248.088
247.912
247.732
247.549
247.364
247.178
246.991
246.805
246.62
246.437
246.257
246.08
245.905
245.735
245.569
245.407
245.249
245.095
244.947
244.802
244.662
244.526
244.395
244.267
244.143
244.023
243.906
243.792
243.681
243.573
243.468
243.364
243.263
243.165
243.068
242.972
242.879
242.786
242.695
242.606
242.517
242.43
242.344
242.258
242.174
242.09
242.008
241.926
241.844
241.764
241.684
241.605
241.526
241.448
241.37
241.294
241.217
241.141
241.066
240.991
240.917
240.843
240.77
240.697
240.624
240.552
240.48
240.408
240.337
240.266
240.196
240.125
240.055
239.985
239.915
239.845
239.776
239.706
239.636
239.567
239.497
239.427
239.356
239.286
239.215
239.143
239.071
238.999
238.926
238.851
238.776
238.7
238.623
238.544
238.464
238.383
238.299
238.214
238.126
238.036
237.943
237.848
237.749
237.647
237.542
237.433
237.319
237.201
237.079
236.951
236.818
236.679
236.534
236.382
236.224
236.059
235.886
235.706
235.517
235.321
235.117
234.904
234.682
234.453
234.215
233.969
233.716
233.456
233.191
232.92
232.645
232.369
232.091
231.816
231.544
231.28
231.025
230.783
230.558
230.354
230.176
230.026
229.911
229.835
229.802
229.816
229.882
249.462
249.445
249.41
249.359
249.291
249.207
249.107
248.993
248.867
248.729
248.58
248.423
248.258
248.087
247.911
247.731
247.548
247.363
247.177
246.99
246.804
246.619
246.436
246.256
246.078
245.904
245.734
245.567
245.405
245.247
245.094
244.945
244.8
244.66
244.524
244.392
244.264
244.14
244.02
243.903
243.789
243.678
243.569
243.464
243.36
243.259
243.16
243.063
242.967
242.873
242.78
242.689
242.599
242.51
242.423
242.336
242.25
242.165
242.081
241.997
241.915
241.833
241.752
241.671
241.591
241.512
241.433
241.354
241.276
241.199
241.122
241.046
240.97
240.894
240.819
240.744
240.67
240.595
240.521
240.448
240.374
240.301
240.228
240.155
240.082
240.01
239.937
239.865
239.792
239.719
239.646
239.573
239.5
239.426
239.352
239.277
239.202
239.127
239.05
238.973
238.895
238.816
238.735
238.654
238.571
238.487
238.4
238.312
238.222
238.13
238.035
237.938
237.837
237.734
237.627
237.516
237.402
237.283
237.159
237.031
236.897
236.758
236.613
236.462
236.303
236.138
235.965
235.784
235.595
235.397
235.19
234.974
234.748
234.512
234.266
234.009
233.743
233.466
233.179
232.882
232.576
232.262
231.94
231.612
231.279
230.943
230.606
230.27
229.94
229.617
229.305
229.009
228.734
228.483
228.262
228.076
227.931
227.832
227.783
227.79
249.48
249.462
249.427
249.375
249.306
249.221
249.12
249.005
248.877
248.738
248.588
248.429
248.264
248.091
247.914
247.733
247.549
247.363
247.176
246.988
246.801
246.616
246.432
246.251
246.073
245.899
245.728
245.561
245.399
245.241
245.087
244.938
244.794
244.653
244.518
244.386
244.258
244.134
244.013
243.896
243.782
243.671
243.563
243.457
243.354
243.253
243.153
243.056
242.96
242.866
242.773
242.681
242.591
242.502
242.414
242.327
242.24
242.155
242.07
241.986
241.903
241.821
241.739
241.657
241.577
241.496
241.417
241.337
241.259
241.18
241.102
241.025
240.948
240.871
240.794
240.718
240.642
240.566
240.491
240.415
240.34
240.265
240.19
240.115
240.039
239.964
239.889
239.814
239.738
239.662
239.586
239.51
239.433
239.355
239.277
239.199
239.119
239.039
238.958
238.875
238.792
238.707
238.62
238.533
238.443
238.351
238.258
238.162
238.063
237.962
237.858
237.751
237.641
237.527
237.408
237.286
237.159
237.027
236.89
236.747
236.598
236.442
236.28
236.11
235.933
235.747
235.553
235.349
235.136
234.913
234.679
234.435
234.179
233.911
233.631
233.339
233.035
232.718
232.388
232.046
231.692
231.327
230.951
230.566
230.174
229.774
229.371
228.967
228.565
228.167
227.78
227.406
227.05
226.719
226.418
226.153
225.931
225.757
225.637
225.577
249.516
249.497
249.461
249.408
249.337
249.25
249.147
249.029
248.899
248.756
248.604
248.443
248.274
248.1
247.92
247.737
247.551
247.363
247.174
246.985
246.797
246.61
246.425
246.243
246.064
245.889
245.718
245.55
245.388
245.23
245.076
244.927
244.782
244.642
244.507
244.375
244.247
244.124
244.003
243.887
243.773
243.662
243.554
243.448
243.345
243.244
243.145
243.047
242.951
242.857
242.764
242.672
242.582
242.493
242.404
242.317
242.23
242.144
242.059
241.975
241.891
241.808
241.725
241.643
241.562
241.481
241.4
241.32
241.24
241.161
241.082
241.003
240.925
240.847
240.769
240.691
240.614
240.537
240.459
240.382
240.305
240.228
240.151
240.074
239.996
239.919
239.841
239.763
239.685
239.606
239.527
239.447
239.366
239.285
239.203
239.12
239.037
238.952
238.866
238.778
238.689
238.599
238.507
238.412
238.316
238.218
238.117
238.013
237.907
237.797
237.684
237.568
237.447
237.323
237.193
237.059
236.92
236.775
236.624
236.466
236.302
236.131
235.951
235.764
235.567
235.362
235.146
234.92
234.684
234.435
234.175
233.902
233.616
233.316
233.002
232.674
232.33
231.972
231.599
231.21
230.806
230.388
229.956
229.511
229.055
228.589
228.115
227.636
227.156
226.677
226.205
225.745
225.301
224.881
224.49
224.136
223.826
223.567
223.366
223.231
249.57
249.55
249.513
249.458
249.384
249.294
249.187
249.066