/*--------------------------------*- C++ -*----------------------------------*\
| =========                 |                                                 |
| \\      /  F ield         | OpenFOAM: The Open Source CFD Toolbox           |
|  \\    /   O peration     | Version:  2306                                  |
|   \\  /    A nd           | Website:  www.openfoam.com                      |
|    \\/     M anipulation  |                                                 |
\*---------------------------------------------------------------------------*/
FoamFile
{
    version     2.0;
    format      ascii;
    arch        "LSB;label=32;scalar=64";
    class       surfaceScalarField;
    location    "0.175";
    object      phi;
}
// * * * * * * * * * * * * * * * * * * * * * * * * * * * * * * * * * * * * * //

dimensions      [0 3 -1 0 0 0 0];

oriented        oriented;

internalField   nonuniform List<scalar> 
34640
(
0.0049244
7.55987e-05
0.00478599
0.000138414
0.00463052
0.000155467
0.00447385
0.000156669
0.00431583
0.000158023
0.00415467
0.000161162
0.00399075
0.00016392
0.00382542
0.00016533
0.00366031
0.000165105
0.00349681
0.000163497
0.00333583
0.000160981
0.00317797
0.000157866
0.00302375
0.000154217
0.00287376
0.000149991
0.00272862
0.000145135
0.00258899
0.00013963
0.00245555
0.00013344
0.00232891
0.000126648
0.00220942
0.000119489
0.00209748
0.000111937
0.00199341
0.000104073
0.0018974
9.60071e-05
0.00180954
8.78625e-05
0.00172977
7.97679e-05
0.00165792
7.18506e-05
0.00159369
6.423e-05
0.00153668
5.70102e-05
0.0014864
5.02763e-05
0.00144231
4.40905e-05
0.00140382
3.84925e-05
0.00137032
3.34988e-05
0.00134121
2.91065e-05
0.00131592
2.52952e-05
0.00129389
2.20322e-05
0.00127461
1.92747e-05
0.00125764
1.69747e-05
0.00124256
1.50771e-05
0.00122904
1.35183e-05
0.00121679
1.22483e-05
0.00120557
1.12268e-05
0.00119515
1.0417e-05
0.00118537
9.7836e-06
0.00117607
9.29388e-06
0.00116715
8.9188e-06
0.00115852
8.63358e-06
0.0011501
8.41762e-06
0.00114185
8.25411e-06
0.00113372
8.12946e-06
0.00112569
8.03284e-06
0.00111773
7.95573e-06
0.00110984
7.89157e-06
0.001102
7.8354e-06
0.00109422
7.78363e-06
0.00108649
7.73376e-06
0.0010788
7.68415e-06
0.00107117
7.63385e-06
0.00106359
7.58242e-06
0.00105606
7.52982e-06
0.00104858
7.47628e-06
0.00104116
7.42223e-06
0.00103379
7.36823e-06
0.00102647
7.31495e-06
0.00101921
7.26307e-06
0.001012
7.21331e-06
0.00100483
7.16637e-06
0.000997708
7.12294e-06
0.000990625
7.0837e-06
0.000983575
7.04927e-06
0.000976555
7.02026e-06
0.000969558
6.9972e-06
0.000962577
6.98062e-06
0.000955606
6.97097e-06
0.000948638
6.96868e-06
0.000941664
6.97418e-06
0.000934676
6.98789e-06
0.000927665
7.01024e-06
0.000920624
7.04162e-06
0.000913541
7.08242e-06
0.000906408
7.13303e-06
0.000899215
7.19382e-06
0.000891949
7.26517e-06
0.000884602
7.34746e-06
0.000877161
7.44107e-06
0.000869614
7.54641e-06
0.000861951
7.66386e-06
0.000854157
7.79384e-06
0.00084622
7.93676e-06
0.000838127
8.09304e-06
0.000829864
8.26311e-06
0.000821416
8.44741e-06
0.00081277
8.64638e-06
0.00080391
8.86046e-06
0.000794819
9.09008e-06
0.000785484
9.33567e-06
0.000775886
9.59764e-06
0.00076601
9.87639e-06
0.000755838
1.01723e-05
0.000745352
1.04856e-05
0.000734535
1.08167e-05
0.000723369
1.11658e-05
0.000711836
1.15329e-05
0.000699918
1.19182e-05
0.000687597
1.23214e-05
0.000674854
1.27425e-05
0.000661673
1.31809e-05
0.000648037
1.36363e-05
0.000633929
1.4108e-05
0.000619334
1.4595e-05
0.000604238
1.50959e-05
0.000588629
1.56091e-05
0.000572496
1.61327e-05
0.000555832
1.66644e-05
0.00053863
1.72014e-05
0.00052089
1.77405e-05
0.000502612
1.82777e-05
0.000483804
1.88086e-05
0.000464475
1.93282e-05
0.000444645
1.98309e-05
0.000424334
2.03105e-05
0.000403574
2.076e-05
0.000382402
2.1172e-05
0.000360863
2.15387e-05
0.000339012
2.18516e-05
0.00031691
2.21022e-05
0.000294628
2.22818e-05
0.000272246
2.23823e-05
0.00024985
2.23956e-05
0.000227535
2.2315e-05
0.0002054
2.21348e-05
0.00018355
2.18507e-05
0.000162089
2.14606e-05
0.000141125
2.09639e-05
0.000120763
2.0362e-05
0.000101106
1.96574e-05
8.22518e-05
1.88539e-05
6.42974e-05
1.79544e-05
4.73365e-05
1.69609e-05
3.14619e-05
1.58747e-05
1.67648e-05
1.46971e-05
3.33123e-06
1.34336e-05
-8.78459e-06
1.21158e-05
-1.95333e-05
1.07488e-05
-2.89137e-05
9.38035e-06
-3.69727e-05
8.05903e-06
-4.3793e-05
6.82033e-06
-4.94645e-05
5.67154e-06
-5.40523e-05
4.5878e-06
-5.75819e-05
3.52962e-06
-6.00569e-05
2.47492e-06
-6.14984e-05
1.44152e-06
-6.2027e-05
5.28685e-07
-6.18405e-05
-1.86511e-07
-6.11713e-05
-6.69237e-07
-6.00387e-05
-1.13253e-06
-5.82513e-05
-1.78742e-06
-5.54571e-05
-2.79415e-06
-5.13053e-05
-4.15185e-06
-4.55803e-05
-5.72492e-06
-3.84762e-05
-7.10417e-06
-7.58362e-06
-3.08925e-05
0.00503752
3.80748e-05
0.0050774
9.85348e-05
0.00509715
0.00013572
0.00510102
0.000152795
0.00509795
0.000161096
0.00509064
0.000168478
0.0050778
0.000176756
0.00505833
0.000184797
0.00503218
0.000191259
0.005
0.000195671
0.00496268
0.000198301
0.00492096
0.00019959
0.00487537
0.000199807
0.00482632
0.000199041
0.00477418
0.000197271
0.00471936
0.000194457
0.00466221
0.000190591
0.00460311
0.00018574
0.0045426
0.000180005
0.00448107
0.00017346
0.00441895
0.000166196
0.00435663
0.000158333
0.00429447
0.000150015
0.00423284
0.000141398
0.00417205
0.00013264
0.00411239
0.000123898
0.00405408
0.000115315
0.00399734
0.000107021
0.00394231
9.91191e-05
0.00388911
9.16929e-05
0.00383781
8.47983e-05
0.00378844
7.84697e-05
0.00374102
7.27175e-05
0.00369552
6.75371e-05
0.00365189
6.29059e-05
0.00361006
5.88034e-05
0.0035699
5.52352e-05
0.00353138
5.20401e-05
0.00349441
4.92109e-05
0.00345892
4.67235e-05
0.00342479
4.454e-05
0.00339196
4.26228e-05
0.00336031
4.09359e-05
0.00332979
3.94464e-05
0.00330029
3.81249e-05
0.00327177
3.69455e-05
0.00324413
3.58862e-05
0.00321734
3.4928e-05
0.00319131
3.4055e-05
0.00316602
3.32537e-05
0.00314139
3.25132e-05
0.00311741
3.18243e-05
0.00309401
3.11797e-05
0.00307117
3.05737e-05
0.00304885
3.00017e-05
0.00302703
2.94602e-05
0.00300566
2.89467e-05
0.00298473
2.8459e-05
0.00296421
2.79959e-05
0.00294408
2.75565e-05
0.00292431
2.714e-05
0.00290488
2.67462e-05
0.00288576
2.6375e-05
0.00286695
2.60265e-05
0.00284842
2.57007e-05
0.00283014
2.53981e-05
0.00281211
2.5119e-05
0.00279429
2.48637e-05
0.00277668
2.46329e-05
0.00275925
2.44269e-05
0.00274198
2.42464e-05
0.00272486
2.40917e-05
0.00270787
2.39633e-05
0.00269098
2.38619e-05
0.00267418
2.37881e-05
0.00265745
2.37427e-05
0.00264076
2.37264e-05
0.00262411
2.37399e-05
0.00260745
2.37842e-05
0.00259079
2.386e-05
0.00257408
2.39683e-05
0.00255732
2.41101e-05
0.00254048
2.42864e-05
0.00252352
2.44983e-05
0.00250644
2.47469e-05
0.0024892
2.50336e-05
0.00247178
2.53595e-05
0.00245415
2.57262e-05
0.00243627
2.61349e-05
0.00241813
2.65872e-05
0.0023997
2.70847e-05
0.00238093
2.76291e-05
0.0023618
2.8222e-05
0.00234227
2.88653e-05
0.0023223
2.95607e-05
0.00230187
3.03101e-05
0.00228093
3.11155e-05
0.00225943
3.19787e-05
0.00223735
3.29017e-05
0.00221463
3.38864e-05
0.00219123
3.49346e-05
0.0021671
3.60482e-05
0.00214219
3.72288e-05
0.00211645
3.8478e-05
0.00208984
3.97963e-05
0.00206229
4.11854e-05
0.00203375
4.26471e-05
0.00200416
4.41812e-05
0.00197347
4.57879e-05
0.00194161
4.74664e-05
0.00190853
4.9216e-05
0.00187416
5.10351e-05
0.00183844
5.29213e-05
0.00180131
5.48708e-05
0.00176271
5.68788e-05
0.00172258
5.89391e-05
0.00168086
6.10442e-05
0.00163751
6.3185e-05
0.00159247
6.53502e-05
0.0015457
6.75268e-05
0.00149717
6.96994e-05
0.00144686
7.18499e-05
0.00139476
7.3958e-05
0.00134086
7.6e-05
0.00128519
7.79498e-05
0.0012278
7.97776e-05
0.00116874
8.14509e-05
0.00110812
8.29337e-05
0.00104607
8.41873e-05
0.00098275
8.51698e-05
0.000918373
8.58375e-05
0.000853192
8.61451e-05
0.000787507
8.60472e-05
0.000721665
8.54996e-05
0.000656056
8.44622e-05
0.000591109
8.29012e-05
0.000527278
8.07926e-05
0.000465026
7.81267e-05
0.000404809
7.49133e-05
0.00034706
7.11832e-05
0.000292168
6.70078e-05
0.000240455
6.2462e-05
0.000192183
5.76517e-05
0.000147557
5.26855e-05
0.000106724
4.76534e-05
6.9777e-05
4.26184e-05
3.67253e-05
3.76395e-05
7.53077e-06
3.27242e-05
-1.7707e-05
2.77127e-05
-3.91794e-05
2.29139e-05
-5.70942e-05
1.84436e-05
-7.1925e-05
1.46443e-05
-8.38967e-05
1.13024e-05
-9.30969e-05
8.06778e-06
-9.94593e-05
4.57494e-06
-0.000102868
6.14527e-07
-0.000103046
-3.97351e-06
-0.000100054
-8.71701e-06
-9.44254e-05
-1.27328e-05
-1.42439e-05
-8.77651e-05
0.00501445
2.36272e-05
0.00504447
6.85093e-05
0.00507418
0.000106011
0.00509859
0.000128387
0.00511781
0.000141876
0.00513503
0.000151254
0.00515196
0.000159827
0.00516818
0.000168575
0.00518272
0.000176723
0.00519492
0.000183471
0.00520465
0.000188571
0.00521209
0.000192156
0.0052174
0.000194493
0.00522066
0.000195781
0.00522183
0.0001961
0.00522085
0.000195441
0.00521765
0.000193791
0.00521223
0.000191155
0.00520467
0.000187562
0.00519503
0.000183102
0.00518338
0.000177849
0.00516981
0.000171898
0.00515446
0.00016537
0.00513746
0.000158397
0.00511898
0.000151121
0.00509919
0.000143684
0.00507828
0.000136225
0.00505643
0.000128869
0.00503383
0.000121727
0.00501063
0.000114891
0.004987
0.000108431
0.00496307
0.000102398
0.00493896
9.68227e-05
0.00491478
9.17175e-05
0.00489061
8.70823e-05
0.0048665
8.29068e-05
0.00484257
7.91637e-05
0.00481882
7.57986e-05
0.00479525
7.27772e-05
0.0047719
7.00746e-05
0.00474877
6.76636e-05
0.00472588
6.55138e-05
0.00470323
6.3594e-05
0.0046808
6.18744e-05
0.00465859
6.03277e-05
0.00463661
5.89294e-05
0.00461484
5.76581e-05
0.00459327
5.64952e-05
0.0045719
5.54248e-05
0.00455072
5.44335e-05
0.00452973
5.35099e-05
0.0045089
5.26447e-05
0.00448825
5.18302e-05
0.00446777
5.10603e-05
0.00444744
5.03301e-05
0.00442726
4.9636e-05
0.00440724
4.89752e-05
0.00438735
4.83456e-05
0.0043676
4.77458e-05
0.00434798
4.71749e-05
0.00432849
4.66324e-05
0.00430912
4.61184e-05
0.00428986
4.56328e-05
0.00427071
4.51761e-05
0.00425166
4.47488e-05
0.00423271
4.43517e-05
0.00421384
4.39855e-05
0.00419505
4.36512e-05
0.00417634
4.33499e-05
0.00415768
4.30826e-05
0.00413908
4.28506e-05
0.00412051
4.26547e-05
0.00410198
4.2496e-05
0.00408347
4.23759e-05
0.00406496
4.22958e-05
0.00404644
4.22573e-05
0.00402791
4.22617e-05
0.00400934
4.23108e-05
0.00399072
4.24062e-05
0.00397203
4.25496e-05
0.00395325
4.27431e-05
0.00393437
4.29884e-05
0.00391537
4.32878e-05
0.00389623
4.36434e-05
0.00387692
4.40575e-05
0.00385742
4.45326e-05
0.00383771
4.50712e-05
0.00381776
4.56761e-05
0.00379754
4.63501e-05
0.00377703
4.70962e-05
0.0037562
4.79177e-05
0.00373501
4.88178e-05
0.00371343
4.98e-05
0.00369143
5.08679e-05
0.00366896
5.20254e-05
0.003646
5.32764e-05
0.00362249
5.46251e-05
0.00359839
5.60756e-05
0.00357366
5.76323e-05
0.00354825
5.92998e-05
0.0035221
6.10825e-05
0.00349516
6.29852e-05
0.00346738
6.50124e-05
0.00343869
6.71688e-05
0.00340903
6.94588e-05
0.00337832
7.18871e-05
0.00334651
7.44587e-05
0.00331352
7.71775e-05
0.00327926
8.00474e-05
0.00324365
8.30711e-05
0.00320662
8.62518e-05
0.00316806
8.95928e-05
0.00312788
9.30953e-05
0.003086
9.67595e-05
0.00304229
0.000100585
0.00299666
0.000104568
0.002949
0.000108707
0.00289919
0.000112994
0.00284712
0.000117422
0.00279266
0.000121979
0.00273571
0.000126652
0.00267614
0.000131423
0.00261383
0.00013627
0.00254866
0.000141167
0.00248053
0.000146084
0.00240932
0.000150985
0.00233494
0.000155825
0.00225732
0.000160556
0.00217639
0.000165122
0.0020921
0.000169456
0.00200445
0.000173487
0.00191347
0.000177132
0.00181921
0.0001803
0.00172182
0.000182896
0.00162146
0.000184819
0.0015184
0.00018596
0.00141299
0.000186206
0.00130567
0.000185444
0.00119702
0.000183566
0.00108773
0.000180475
0.00097864
0.000176093
0.000870735
0.000170368
0.000765105
0.000163281
0.000662923
0.000154867
0.000565363
0.000145214
0.000473504
0.000134477
0.000388259
0.000122885
0.000310254
0.000110729
0.000239587
9.83805e-05
0.00017625
8.62506e-05
0.000120022
7.46719e-05
7.07972e-05
6.38688e-05
2.81606e-05
5.39391e-05
-7.93405e-06
4.41624e-05
-3.80247e-05
3.46656e-05
-6.25006e-05
2.50905e-05
-8.17788e-05
1.53047e-05
-9.57378e-05
5.24201e-06
-0.000104439
-4.03192e-06
-9.60612e-06
-0.000109076
0.00500634
1.72885e-05
0.00502385
5.09991e-05
0.00504705
8.28143e-05
0.00506939
0.000106043
0.00508908
0.000122187
0.00510686
0.000133478
0.00512443
0.000142249
0.00514265
0.000150362
0.00516108
0.000158284
0.00517925
0.000165302
0.00519682
0.000171001
0.00521368
0.000175301
0.00522985
0.000178323
0.00524536
0.000180268
0.00526017
0.000181291
0.00527418
0.000181436
0.00528726
0.000180711
0.0052993
0.000179117
0.00531018
0.000176677
0.00531984
0.000173446
0.00532819
0.000169493
0.00533519
0.000164899
0.00534081
0.000159757
0.00534502
0.000154177
0.00534787
0.000148274
0.00534939
0.000142165
0.00534965
0.000135966
0.00534873
0.000129787
0.00534673
0.000123725
0.00534376
0.000117865
0.00533991
0.000112276
0.00533531
0.000107008
0.00533003
0.000102097
0.00532419
9.7563e-05
0.00531785
9.34135e-05
0.00531112
8.96411e-05
0.00530405
8.62288e-05
0.0052967
8.31552e-05
0.00528908
8.0393e-05
0.00528124
7.79166e-05
0.0052732
7.57023e-05
0.00526499
7.37261e-05
0.00525662
7.19628e-05
0.00524811
7.03874e-05
0.00523946
6.89765e-05
0.00523068
6.7708e-05
0.00522178
6.65627e-05
0.00521275
6.55233e-05
0.0052036
6.45751e-05
0.00519433
6.37052e-05
0.00518493
6.29029e-05
0.00517542
6.21589e-05
0.00516578
6.14659e-05
0.00515603
6.08176e-05
0.00514615
6.02091e-05
0.00513615
5.96366e-05
0.00512602
5.90973e-05
0.00511578
5.85889e-05
0.00510542
5.81101e-05
0.00509493
5.766e-05
0.00508433
5.72382e-05
0.0050736
5.68446e-05
0.00506275
5.64795e-05
0.00505178
5.61436e-05
0.0050407
5.58377e-05
0.00502948
5.55627e-05
0.00501815
5.53199e-05
0.00500669
5.51105e-05
0.00499511
5.49361e-05
0.00498339
5.47982e-05
0.00497154
5.46986e-05
0.00495956
5.46387e-05
0.00494743
5.46202e-05
0.00493516
5.46451e-05
0.00492274
5.47155e-05
0.00491017
5.48336e-05
0.00489743
5.50016e-05
0.00488452
5.5222e-05
0.00487143
5.54972e-05
0.00485815
5.583e-05
0.00484467
5.6223e-05
0.00483097
5.66792e-05
0.00481706
5.72018e-05
0.00480291
5.77939e-05
0.00478851
5.8459e-05
0.00477384
5.92008e-05
0.00475889
6.0023e-05
0.00474364
6.09298e-05
0.00472806
6.19253e-05
0.00471214
6.3014e-05
0.00469586
6.42008e-05
0.00467919
6.54904e-05
0.0046621
6.68883e-05
0.00464457
6.83999e-05
0.00462656
7.0031e-05
0.00460805
7.17876e-05
0.004589
7.36761e-05
0.00456937
7.5703e-05
0.00454913
7.78752e-05
0.00452823
8.02e-05
0.00450663
8.26847e-05
0.00448427
8.53371e-05
0.00446112
8.81648e-05
0.00443711
9.11761e-05
0.00441219
9.43792e-05
0.0043863
9.77827e-05
0.00435936
0.000101395
0.00433131
0.000105225
0.00430208
0.000109281
0.00427158
0.000113571
0.00423973
0.000118104
0.00420643
0.000122887
0.0041716
0.000127929
0.00413513
0.000133234
0.0040969
0.00013881
0.00405681
0.000144661
0.00401472
0.000150789
0.00397052
0.000157197
0.00392406
0.000163883
0.0038752
0.000170844
0.00382377
0.000178075
0.00376963
0.000185565
0.0037126
0.000193302
0.0036525
0.000201266
0.00358915
0.000209435
0.00352236
0.000217777
0.00345192
0.000226258
0.00337765
0.000234831
0.00329933
0.000243442
0.00321676
0.000252027
0.00312974
0.000260511
0.00303806
0.000268806
0.00294156
0.000276806
0.00284006
0.000284394
0.00273342
0.000291456
0.00262153
0.000297847
0.00250433
0.000303407
0.00238181
0.000307965
0.00225404
0.000311341
0.00212117
0.00031334
0.0019835
0.000313764
0.00184146
0.000312414
0.00169563
0.000309103
0.00154685
0.000303654
0.00139616
0.000295897
0.00124495
0.000285689
0.00109489
0.000272942
0.000947964
0.000257657
0.000806391
0.000239954
0.000672518
0.000220124
0.000548549
0.000198641
0.000436264
0.000176153
0.000336803
0.000153401
0.000249778
0.000131187
0.000174295
0.000110149
0.000108974
9.0411e-05
5.2619e-05
7.16598e-05
5.47527e-06
5.23858e-05
-3.2501e-05
3.39444e-05
1.91539e-05
-6.12611e-05
0.00500365
1.36379e-05
0.00501435
4.0303e-05
0.00503119
6.59758e-05
0.00504934
8.7885e-05
0.00506702
0.00010451
0.00508362
0.000116874
0.00509961
0.000126267
0.00511581
0.000134163
0.00513256
0.000141531
0.00514965
0.000148212
0.00516675
0.000153904
0.00518365
0.000158393
0.0052003
0.000161679
0.00521667
0.0001639
0.00523276
0.000165196
0.00524854
0.000165655
0.00526393
0.000165321
0.00527883
0.000164217
0.00529314
0.000162369
0.00530677
0.000159818
0.00531963
0.000156626
0.00533167
0.000152863
0.00534281
0.000148612
0.00535303
0.000143961
0.0053623
0.000139007
0.00537061
0.000133849
0.005378
0.000128583
0.00538448
0.000123301
0.00539012
0.000118089
0.00539497
0.000113018
0.00539909
0.000108151
0.00540256
0.000103536
0.00540545
9.92065e-05
0.00540783
9.51849e-05
0.00540976
9.14809e-05
0.00541131
8.80934e-05
0.00541253
8.50151e-05
0.00541345
8.22346e-05
0.00541411
7.97333e-05
0.00541453
7.74899e-05
0.00541475
7.54835e-05
0.00541478
7.36937e-05
0.00541465
7.21003e-05
0.00541435
7.06828e-05
0.00541391
6.94212e-05
0.00541332
6.82968e-05
0.00541259
6.72924e-05
0.00541172
6.63924e-05
0.00541071
6.55834e-05
0.00540956
6.48534e-05
0.00540827
6.41925e-05
0.00540684
6.35918e-05
0.00540526
6.30441e-05
0.00540354
6.25434e-05
0.00540166
6.20848e-05
0.00539963
6.16644e-05
0.00539745
6.12792e-05
0.00539511
6.09269e-05
0.00539262
6.0606e-05
0.00538996
6.03154e-05
0.00538714
6.00546e-05
0.00538416
5.98236e-05
0.00538102
5.96226e-05
0.00537771
5.94522e-05
0.00537424
5.93132e-05
0.00537059
5.92067e-05
0.00536678
5.9134e-05
0.00536279
5.90966e-05
0.00535863
5.90961e-05
0.0053543
5.91343e-05
0.00534978
5.9213e-05
0.00534509
5.93343e-05
0.00534021
5.95001e-05
0.00533514
5.97128e-05
0.00532988
5.99749e-05
0.00532443
6.02889e-05
0.00531877
6.06577e-05
0.00531291
6.10841e-05
0.00530683
6.15712e-05
0.00530054
6.21222e-05
0.00529402
6.27406e-05
0.00528727
6.34299e-05
0.00528028
6.4194e-05
0.00527304
6.50369e-05
0.00526553
6.59628e-05
0.00525776
6.69763e-05
0.0052497
6.80821e-05
0.00524134
6.92852e-05
0.00523268
7.0591e-05
0.00522369
7.20051e-05
0.00521435
7.35333e-05
0.00520466
7.51821e-05
0.00519459
7.69579e-05
0.00518413
7.88677e-05
0.00517324
8.0919e-05
0.00516191
8.31194e-05
0.0051501
8.5477e-05
0.00513781
8.80004e-05
0.00512498
9.06985e-05
0.0051116
9.35807e-05
0.00509763
9.66568e-05
0.00508303
9.99371e-05
0.00506776
0.000103432
0.00505179
0.000107153
0.00503506
0.000111111
0.00501752
0.000115318
0.00499913
0.000119787
0.00497982
0.00012453
0.00495955
0.000129559
0.00493823
0.000134888
0.0049158
0.00014053
0.00489219
0.000146499
0.00486731
0.000152807
0.00484108
0.000159466
0.0048134
0.000166491
0.00478417
0.000173892
0.00475328
0.00018168
0.00472061
0.000189865
0.00468604
0.000198456
0.00464942
0.000207458
0.00461062
0.000216877
0.00456947
0.000226714
0.00452581
0.000236966
0.00447944
0.000247629
0.00443019
0.000258691
0.00437783
0.000270136
0.00432214
0.000281942
0.0042629
0.000294079
0.00419983
0.000306508
0.00413268
0.000319179
0.00406116
0.000332031
0.00398497
0.000344992
0.00390381
0.000357971
0.00381733
0.000370868
0.00372522
0.000383568
0.00362713
0.000395935
0.00352273
0.00040781
0.00341168
0.000419018
0.00329366
0.00042936
0.00316838
0.000438618
0.00303559
0.000446549
0.00289513
0.000452874
0.00274693
0.000457312
0.00259098
0.000459604
0.00242746
0.00045941
0.00225675
0.000456399
0.00207945
0.000450248
0.00189644
0.000440666
0.00170898
0.000427417
0.00151878
0.000410323
0.00132815
0.000389263
0.0011401
0.000364211
0.000958184
0.000335312
0.000786402
0.000302969
0.000628591
0.00026796
0.000487605
0.000231397
0.000364863
0.000194402
0.000259217
0.000158032
0.000169623
0.000123539
9.29151e-05
9.58616e-05
0.00500249
1.11484e-05
0.00500982
3.29721e-05
0.00502171
5.4091e-05
0.00503621
7.33809e-05
0.00505142
8.93026e-05
0.00506648
0.000101814
0.00508114
0.000111608
0.00509573
0.000119565
0.00511075
0.000126515
0.00512619
0.000132767
0.00514189
0.00013821
0.00515762
0.00014266
0.00517324
0.000146058
0.00518869
0.000148448
0.00520396
0.000149929
0.00521902
0.000150597
0.00523382
0.000150519
0.0052483
0.00014974
0.00526238
0.000148294
0.00527597
0.000146223
0.00528902
0.000143577
0.00530146
0.00014042
0.00531325
0.000136823
0.00532435
0.000132863
0.00533473
0.000128622
0.0053444
0.000124185
0.00535335
0.000119633
0.0053616
0.000115045
0.0053692
0.000110494
0.00537617
0.000106043
0.00538258
0.000101748
0.00538846
9.76504e-05
0.00539388
9.37845e-05
0.0053989
9.01716e-05
0.00540355
8.68239e-05
0.0054079
8.37456e-05
0.00541198
8.09349e-05
0.00541583
7.83846e-05
0.00541948
7.60826e-05
0.00542296
7.40128e-05
0.00542629
7.21578e-05
0.00542948
7.05005e-05
0.00543256
6.9024e-05
0.00543553
6.77115e-05
0.0054384
6.65466e-05
0.00544118
6.55131e-05
0.00544388
6.45961e-05
0.00544649
6.3782e-05
0.00544902
6.30585e-05
0.00545146
6.24148e-05
0.00545381
6.18416e-05
0.00545607
6.13309e-05
0.00545824
6.08757e-05
0.00546031
6.04704e-05
0.00546228
6.011e-05
0.00546416
5.97909e-05
0.00546593
5.951e-05
0.00546759
5.92649e-05
0.00546914
5.90541e-05
0.00547058
5.88764e-05
0.0054719
5.87312e-05
0.00547311
5.86184e-05
0.00547419
5.85381e-05
0.00547515
5.84909e-05
0.00547599
5.84776e-05
0.0054767
5.84993e-05
0.00547727
5.85572e-05
0.00547772
5.86528e-05
0.00547802
5.87879e-05
0.00547819
5.89642e-05
0.00547822
5.91838e-05
0.00547811
5.94488e-05
0.00547785
5.97615e-05
0.00547744
6.01244e-05
0.00547687
6.05402e-05
0.00547615
6.10116e-05
0.00547526
6.15418e-05
0.00547421
6.21339e-05
0.00547299
6.27914e-05
0.0054716
6.35178e-05
0.00547002
6.43168e-05
0.00546826
6.51927e-05
0.0054663
6.61495e-05
0.00546415
6.71919e-05
0.00546179
6.83245e-05
0.00545921
6.95525e-05
0.00545641
7.08813e-05
0.00545338
7.23164e-05
0.00545011
7.3864e-05
0.00544658
7.55304e-05
0.00544279
7.73222e-05
0.00543873
7.92467e-05
0.00543438
8.13114e-05
0.00542972
8.35243e-05
0.00542474
8.58936e-05
0.00541944
8.84284e-05
0.00541377
9.1138e-05
0.00540774
9.40322e-05
0.00540132
9.71215e-05
0.00539448
0.000100417
0.00538721
0.000103929
0.00537948
0.000107672
0.00537125
0.000111656
0.00536251
0.000115896
0.00535322
0.000120404
0.00534334
0.000125197
0.00533284
0.000130288
0.00532167
0.000135692
0.00530981
0.000141427
0.00529719
0.000147509
0.00528376
0.000153955
0.00526948
0.000160782
0.00525428
0.000168008
0.00523809
0.000175651
0.00522085
0.000183729
0.00520249
0.00019226
0.00518291
0.000201261
0.00516202
0.00021075
0.00513973
0.000220744
0.00511593
0.000231258
0.0050905
0.000242305
0.00506332
0.000253899
0.00503424
0.000266049
0.0050031
0.000278762
0.00496975
0.000292042
0.004934
0.000305888
0.00489565
0.000320294
0.00485448
0.000335248
0.00481026
0.000350732
0.00476272
0.000366716
0.00471159
0.000383164
0.00465655
0.000400027
0.00459728
0.000417243
0.00453341
0.000434738
0.00446456
0.000452422
0.00439031
0.000470185
0.00431021
0.000487901
0.00422382
0.000505417
0.00413062
0.00052256
0.00403011
0.000539126
0.00392177
0.000554885
0.00380507
0.000569573
0.00367948
0.000582907
0.00354451
0.000594573
0.00339971
0.000604215
0.00324467
0.000611438
0.00307909
0.000615823
0.00290286
0.000616897
0.00271606
0.000614219
0.00251901
0.000607371
0.00231243
0.000595841
0.00209748
0.000579165
0.00187581
0.000556984
0.00164971
0.000529068
0.00142238
0.000495292
0.0011981
0.000455677
0.000982019
0.000410481
0.000779626
0.000360426
0.000596188
0.000306976
0.000252518
0.000436585
0.00500185
9.29987e-06
0.00500728
2.7539e-05
0.00501604
4.53326e-05
0.00502755
6.18689e-05
0.00504038
7.64707e-05
0.00505372
8.84761e-05
0.00506711
9.82154e-05
0.00508051
0.000106166
0.00509416
0.000112873
0.00510819
0.000118734
0.00512255
0.000123847
0.00513708
0.00012813
0.00515162
0.000131514
0.00516608
0.00013399
0.0051804
0.000135609
0.00519455
0.000136449
0.00520849
0.000136583
0.00522216
0.000136069
0.0052355
0.000134951
0.00524845
0.000133271
0.00526095
0.000131076
0.00527295
0.000128421
0.00528441
0.000125367
0.00529529
0.000121982
0.00530558
0.000118336
0.00531526
0.000114501
0.00532435
0.000110548
0.00533285
0.000106545
0.00534079
0.000102554
0.0053482
9.86309e-05
0.00535512
9.48243e-05
0.0053616
9.11733e-05
0.00536768
8.77084e-05
0.0053734
8.44515e-05
0.0053788
8.14165e-05
0.00538394
7.86104e-05
0.00538884
7.60348e-05
0.00539354
7.36858e-05
0.00539807
7.15556e-05
0.00540245
6.96324e-05
0.0054067
6.79027e-05
0.00541085
6.63527e-05
0.0054149
6.49682e-05
0.00541888
6.37355e-05
0.00542279
6.26407e-05
0.00542663
6.16705e-05
0.00543041
6.08118e-05
0.00543414
6.00529e-05
0.00543782
5.93829e-05
0.00544144
5.87921e-05
0.00544501
5.82719e-05
0.00544853
5.78151e-05
0.00545199
5.74153e-05
0.00545539
5.7067e-05
0.00545873
5.67658e-05
0.00546202
5.6508e-05
0.00546524
5.62908e-05
0.00546839
5.61118e-05
0.00547147
5.59694e-05
0.00547449
5.58625e-05
0.00547743
5.57906e-05
0.00548029
5.57532e-05
0.00548308
5.57508e-05
0.00548579
5.57836e-05
0.00548841
5.58526e-05
0.00549095
5.59587e-05
0.00549341
5.61033e-05
0.00549577
5.62879e-05
0.00549805
5.65142e-05
0.00550023
5.6784e-05
0.00550231
5.70994e-05
0.0055043
5.74627e-05
0.00550618
5.78763e-05
0.00550796
5.83427e-05
0.00550964
5.88649e-05
0.00551121
5.94457e-05
0.00551266
6.00884e-05
0.005514
6.07963e-05
0.00551522
6.1573e-05
0.00551631
6.24223e-05
0.00551728
6.33484e-05
0.00551812
6.43554e-05
0.00551882
6.54478e-05
0.00551938
6.66306e-05
0.0055198
6.79087e-05
0.00552006
6.92877e-05
0.00552017
7.07732e-05
0.00552011
7.23714e-05
0.00551989
7.40885e-05
0.00551949
7.59316e-05
0.0055189
7.79077e-05
0.00551812
8.00246e-05
0.00551715
8.22902e-05
0.00551596
8.47134e-05
0.00551455
8.73029e-05
0.00551291
9.00685e-05
0.00551102
9.30202e-05
0.00550889
9.61688e-05
0.00550648
9.95255e-05
0.0055038
0.000103102
0.00550082
0.000106911
0.00549752
0.000110966
0.0054939
0.000115281
0.00548992
0.000119869
0.00548558
0.000124747
0.00548085
0.00012993
0.0054757
0.000135436
0.00547011
0.000141281
0.00546405
0.000147484
0.0054575
0.000154063
0.00545042
0.000161039
0.00544277
0.000168432
0.00543451
0.000176262
0.00542561
0.000184551
0.00541602
0.000193321
0.00540568
0.000202595
0.00539455
0.000212394
0.00538256
0.000222742
0.00536964
0.000233662
0.00535573
0.000245174
0.00534073
0.000257303
0.00532456
0.000270067
0.00530712
0.000283487
0.0052883
0.00029758
0.00526798
0.000312363
0.00524602
0.000327847
0.00522227
0.000344043
0.00519657
0.000360954
0.00516872
0.000378582
0.00513852
0.000396918
0.00510573
0.00041595
0.0050701
0.000435654
0.00503135
0.000455998
0.00498915
0.000476939
0.00494315
0.000498419
0.00489297
0.000520366
0.00483818
0.000542691
0.00477831
0.000565283
0.00471286
0.000588012
0.00464127
0.000610719
0.00456294
0.000633218
0.00447721
0.000655296
0.00438342
0.000676704
0.00428083
0.000697158
0.00416872
0.000716331
0.0040463
0.000733851
0.00391283
0.000749291
0.00376755
0.000762181
0.00360975
0.000772015
0.00343888
0.000778249
0.00325445
0.000780269
0.0030562
0.000777416
0.00284421
0.000768974
0.00261889
0.000754382
0.00238122
0.000732961
0.00213286
0.000704043
0.00187614
0.0006672
0.00161429
0.00062227
0.00135186
0.000569415
0.000509182
0.00109519
0.00500144
7.86099e-06
0.00500568
2.33025e-05
0.00501255
3.84549e-05
0.00502174
5.26813e-05
0.00503256
6.56465e-05
0.00504425
7.67948e-05
0.00505635
8.61116e-05
0.00506867
9.38454e-05
0.00508122
0.000100324
0.00509409
0.000105864
0.00510729
0.000110645
0.00512073
0.000114692
0.00513428
0.000117966
0.00514782
0.000120444
0.00516129
0.000122144
0.00517462
0.000123117
0.00518777
0.000123429
0.0052007
0.000123139
0.00521335
0.000122298
0.00522568
0.00012095
0.00523761
0.00011914
0.00524912
0.000116915
0.00526015
0.00011433
0.00527069
0.000111443
0.00528072
0.000108313
0.00529021
0.000105004
0.00529918
0.000101576
0.00530764
9.80876e-05
0.0053156
9.45933e-05
0.00532309
9.11417e-05
0.00533014
8.77754e-05
0.00533678
8.453e-05
0.00534306
8.14337e-05
0.005349
7.85078e-05
0.00535465
7.5767e-05
0.00536004
7.32199e-05
0.00536521
7.08701e-05
0.00537018
6.87165e-05
0.00537498
6.67541e-05
0.00537963
6.49748e-05
0.00538417
6.33686e-05
0.0053886
6.19244e-05
0.00539293
6.06308e-05
0.00539719
5.94765e-05
0.00540138
5.84498e-05
0.00540552
5.75395e-05
0.00540959
5.67348e-05
0.00541362
5.60252e-05
0.0054176
5.54013e-05
0.00542154
5.48545e-05
0.00542543
5.43773e-05
0.00542929
5.39629e-05
0.0054331
5.36055e-05
0.00543686
5.33002e-05
0.00544059
5.3043e-05
0.00544426
5.28302e-05
0.00544789
5.26593e-05
0.00545148
5.25281e-05
0.00545501
5.2435e-05
0.0054585
5.2379e-05
0.00546193
5.23595e-05
0.0054653
5.23763e-05
0.00546863
5.24294e-05
0.00547189
5.25196e-05
0.00547509
5.26474e-05
0.00547824
5.28141e-05
0.00548132
5.30208e-05
0.00548434
5.32691e-05
0.00548729
5.35608e-05
0.00549018
5.38976e-05
0.005493
5.42819e-05
0.00549574
5.47158e-05
0.00549842
5.52019e-05
0.00550102
5.57429e-05
0.00550354
5.63416e-05
0.00550599
5.70011e-05
0.00550835
5.77247e-05
0.00551063
5.8516e-05
0.00551283
5.93785e-05
0.00551493
6.03163e-05
0.00551695
6.13336e-05
0.00551887
6.24348e-05
0.00552069
6.36245e-05
0.00552241
6.49079e-05
0.00552403
6.62902e-05
0.00552554
6.77771e-05
0.00552694
6.93744e-05
0.00552822
7.10885e-05
0.00552939
7.2926e-05
0.00553042
7.48942e-05
0.00553133
7.70004e-05
0.0055321
7.92527e-05
0.00553273
8.16593e-05
0.00553322
8.42294e-05
0.00553355
8.69722e-05
0.00553372
8.98978e-05
0.00553372
9.30166e-05
0.00553355
9.63399e-05
0.0055332
9.98794e-05
0.00553265
0.000103647
0.00553191
0.000107657
0.00553095
0.000111922
0.00552977
0.000116458
0.00552836
0.000121278
0.00552671
0.0001264
0.0055248
0.00013184
0.00552262
0.000137616
0.00552016
0.000143746
0.00551739
0.000150251
0.0055143
0.000157149
0.00551088
0.000164463
0.0055071
0.000172213
0.00550294
0.000180424
0.00549837
0.000189118
0.00549337
0.00019832
0.00548791
0.000208054
0.00548196
0.000218347
0.00547548
0.000229224
0.00546843
0.000240712
0.00546076
0.000252837
0.00545244
0.000265627
0.0054434
0.000279109
0.00543358
0.000293307
0.00542291
0.000308248
0.00541132
0.000323956
0.00539871
0.000340454
0.00538499
0.000357762
0.00537005
0.000375898
0.00535375
0.000394878
0.00533596
0.000414711
0.00531651
0.000435403
0.00529521
0.000456954
0.00527185
0.000479355
0.00524619
0.000502593
0.00521797
0.00052664
0.00518688
0.00055146
0.00515257
0.000577002
0.00511465
0.000603199
0.0050727
0.000629967
0.00502621
0.000657202
0.00497466
0.000684773
0.00491743
0.000712525
0.00485386
0.000740274
0.00478322
0.000767793
0.00470473
0.000794825
0.00461752
0.000821056
0.00452068