/*--------------------------------*- C++ -*----------------------------------*\
| =========                 |                                                 |
| \\      /  F ield         | OpenFOAM: The Open Source CFD Toolbox           |
|  \\    /   O peration     | Version:  2306                                  |
|   \\  /    A nd           | Website:  www.openfoam.com                      |
|    \\/     M anipulation  |                                                 |
\*---------------------------------------------------------------------------*/
FoamFile
{
    version     2.0;
    format      ascii;
    arch        "LSB;label=32;scalar=64";
    class       volVectorField;
    location    "0.175";
    object      U;
}
// * * * * * * * * * * * * * * * * * * * * * * * * * * * * * * * * * * * * * //

dimensions      [0 1 -1 0 0 0 0];

internalField   nonuniform List<vector> 
17600
(
(9.80708 0.0850068 0)
(9.62283 0.1805 0)
(9.41196 0.217949 0)
(9.14628 0.225578 0)
(8.83439 0.225099 0)
(8.49836 0.225384 0)
(8.15616 0.226736 0)
(7.81672 0.227128 0)
(7.4827 0.225219 0)
(7.15415 0.220818 0)
(6.83068 0.214448 0)
(6.51244 0.206752 0)
(6.20027 0.198159 0)
(5.89552 0.188851 0)
(5.59967 0.178846 0)
(5.31426 0.168128 0)
(5.04061 0.156695 0)
(4.78014 0.144611 0)
(4.53375 0.131892 0)
(4.30223 0.118626 0)
(4.08623 0.104995 0)
(3.88625 0.0912561 0)
(3.70256 0.0777016 0)
(3.53518 0.0646254 0)
(3.38389 0.0522969 0)
(3.24818 0.0409421 0)
(3.12733 0.0307305 0)
(3.02043 0.021768 0)
(2.92643 0.0140972 0)
(2.84418 0.00770358 0)
(2.77248 0.00252662 0)
(2.71014 -0.00152785 0)
(2.65596 -0.00457377 0)
(2.60882 -0.00673567 0)
(2.56767 -0.00813614 0)
(2.53156 -0.00889702 0)
(2.49962 -0.00912789 0)
(2.47111 -0.00895956 0)
(2.44542 -0.00851319 0)
(2.42201 -0.00788269 0)
(2.40042 -0.00713717 0)
(2.38026 -0.00632784 0)
(2.36122 -0.00549312 0)
(2.34304 -0.00466154 0)
(2.32552 -0.00385374 0)
(2.30849 -0.00308415 0)
(2.29183 -0.00236239 0)
(2.27546 -0.00169444 0)
(2.25931 -0.00108344 0)
(2.24333 -0.000530362 0)
(2.22749 -3.43878e-05 0)
(2.21177 0.00040664 0)
(2.19616 0.000795877 0)
(2.18064 0.00113714 0)
(2.16523 0.00143465 0)
(2.14991 0.00169276 0)
(2.1347 0.00191584 0)
(2.11959 0.0021081 0)
(2.10459 0.00227357 0)
(2.08969 0.00241599 0)
(2.0749 0.00253881 0)
(2.06022 0.00264517 0)
(2.04564 0.00273791 0)
(2.03117 0.00281957 0)
(2.01679 0.00289241 0)
(2.00251 0.00295844 0)
(1.9883 0.0030194 0)
(1.97417 0.00307685 0)
(1.96011 0.00313212 0)
(1.94609 0.00318638 0)
(1.93212 0.00324059 0)
(1.91817 0.00329556 0)
(1.90423 0.00335198 0)
(1.89029 0.00341054 0)
(1.87633 0.00347189 0)
(1.86234 0.00353664 0)
(1.84829 0.00360535 0)
(1.83417 0.0036785 0)
(1.81996 0.00375653 0)
(1.80564 0.00383982 0)
(1.79118 0.00392873 0)
(1.77658 0.00402357 0)
(1.76179 0.00412465 0)
(1.74681 0.00423223 0)
(1.7316 0.00434655 0)
(1.71615 0.00446785 0)
(1.70043 0.00459631 0)
(1.6844 0.00473213 0)
(1.66805 0.00487545 0)
(1.65135 0.00502638 0)
(1.63426 0.00518503 0)
(1.61676 0.00535144 0)
(1.59882 0.0055256 0)
(1.5804 0.00570746 0)
(1.56147 0.00589689 0)
(1.54201 0.00609371 0)
(1.52197 0.00629761 0)
(1.50132 0.0065082 0)
(1.48002 0.00672498 0)
(1.45805 0.00694727 0)
(1.43536 0.00717424 0)
(1.41192 0.00740485 0)
(1.38769 0.00763781 0)
(1.36263 0.00787159 0)
(1.33672 0.00810436 0)
(1.30991 0.00833443 0)
(1.28217 0.00856023 0)
(1.25348 0.00877984 0)
(1.2238 0.00899094 0)
(1.1931 0.00919082 0)
(1.16137 0.00937662 0)
(1.12858 0.00954508 0)
(1.09472 0.0096924 0)
(1.05978 0.00981426 0)
(1.02377 0.00990579 0)
(0.986687 0.00996176 0)
(0.948551 0.00997668 0)
(0.90939 0.00994496 0)
(0.869245 0.00986099 0)
(0.828169 0.00971935 0)
(0.786227 0.00951513 0)
(0.743504 0.00924419 0)
(0.700097 0.00890364 0)
(0.656124 0.00849224 0)
(0.611716 0.00801103 0)
(0.567025 0.00746383 0)
(0.522215 0.00685791 0)
(0.477469 0.00620448 0)
(0.432981 0.00551904 0)
(0.388953 0.00482139 0)
(0.345597 0.00413501 0)
(0.303124 0.00348558 0)
(0.261747 0.00289828 0)
(0.221674 0.0023941 0)
(0.183106 0.00198527 0)
(0.146239 0.00167069 0)
(0.111263 0.00143179 0)
(0.0783658 0.00123107 0)
(0.0477328 0.0010151 0)
(0.0195251 0.000728379 0)
(-0.00606482 0.000344304 0)
(-0.0289184 -0.00020257 0)
(-0.0490512 -0.000871962 0)
(-0.0664903 -0.00159635 0)
(-0.0813668 -0.00228244 0)
(-0.0938538 -0.00283717 0)
(-0.104107 -0.00320726 0)
(-0.112228 -0.00342757 0)
(-0.118221 -0.00360518 0)
(-0.122101 -0.00377299 0)
(-0.124001 -0.00385273 0)
(-0.124277 -0.00372198 0)
(-0.123405 -0.00343582 0)
(-0.12164 -0.00314969 0)
(-0.118793 -0.00310169 0)
(-0.114284 -0.00347965 0)
(-0.107366 -0.0043516 0)
(-0.0974055 -0.00556497 0)
(-0.0842943 -0.00678903 0)
(-0.069096 -0.00744247 0)
(10.0008 0.122279 0)
(10.0676 0.272137 0)
(10.1383 0.342321 0)
(10.1915 0.367553 0)
(10.2161 0.377243 0)
(10.2123 0.385768 0)
(10.1866 0.395782 0)
(10.1458 0.405219 0)
(10.094 0.411968 0)
(10.033 0.415276 0)
(9.96332 0.415459 0)
(9.88493 0.413206 0)
(9.7981 0.409068 0)
(9.70347 0.403323 0)
(9.60188 0.396014 0)
(9.49435 0.387098 0)
(9.3818 0.376507 0)
(9.26525 0.364232 0)
(9.14545 0.350289 0)
(9.02325 0.334778 0)
(8.89949 0.317882 0)
(8.77498 0.299852 0)
(8.65051 0.280984 0)
(8.52678 0.261597 0)
(8.40445 0.24202 0)
(8.2841 0.222574 0)
(8.16622 0.203559 0)
(8.05124 0.185244 0)
(7.9395 0.167851 0)
(7.83128 0.151556 0)
(7.72675 0.136478 0)
(7.62605 0.122693 0)
(7.5292 0.110221 0)
(7.43622 0.0990517 0)
(7.34699 0.0891349 0)
(7.26147 0.0804046 0)
(7.17944 0.0727705 0)
(7.10075 0.0661535 0)
(7.02525 0.0604739 0)
(6.95277 0.0556427 0)
(6.88314 0.0515628 0)
(6.81617 0.0481339 0)
(6.7517 0.045259 0)
(6.68955 0.0428487 0)
(6.62955 0.0408243 0)
(6.57155 0.0391179 0)
(6.51542 0.0376719 0)
(6.46101 0.0364382 0)
(6.40822 0.0353767 0)
(6.35692 0.0344542 0)
(6.30703 0.0336437 0)
(6.25844 0.0329231 0)
(6.21108 0.032275 0)
(6.16487 0.0316856 0)
(6.11973 0.0311442 0)
(6.0756 0.0306427 0)
(6.03243 0.030175 0)
(5.99015 0.0297367 0)
(5.94872 0.0293248 0)
(5.90808 0.0289373 0)
(5.86819 0.0285729 0)
(5.829 0.028231 0)
(5.79047 0.0279116 0)
(5.75255 0.0276149 0)
(5.71522 0.0273414 0)
(5.67842 0.0270919 0)
(5.64212 0.0268672 0)
(5.60628 0.0266682 0)
(5.57086 0.0264961 0)
(5.53583 0.0263517 0)
(5.50114 0.0262362 0)
(5.46676 0.0261506 0)
(5.43266 0.0260959 0)
(5.39878 0.026073 0)
(5.3651 0.0260829 0)
(5.33158 0.0261267 0)
(5.29817 0.0262055 0)
(5.26484 0.0263205 0)
(5.23154 0.0264727 0)
(5.19823 0.0266634 0)
(5.16487 0.0268938 0)
(5.13142 0.0271653 0)
(5.09782 0.0274792 0)
(5.06403 0.0278369 0)
(5.03001 0.02824 0)
(4.9957 0.0286898 0)
(4.96105 0.0291882 0)
(4.92601 0.0297367 0)
(4.89051 0.030337 0)
(4.85452 0.0309911 0)
(4.81795 0.0317007 0)
(4.78076 0.0324677 0)
(4.74288 0.0332942 0)
(4.70423 0.034182 0)
(4.66475 0.0351332 0)
(4.62438 0.0361497 0)
(4.58302 0.0372335 0)
(4.5406 0.0383866 0)
(4.49704 0.0396107 0)
(4.45226 0.0409076 0)
(4.40616 0.0422789 0)
(4.35865 0.043726 0)
(4.30964 0.0452498 0)
(4.25902 0.0468513 0)
(4.2067 0.0485306 0)
(4.15257 0.0502873 0)
(4.09651 0.0521198 0)
(4.03841 0.0540255 0)
(3.97817 0.0560012 0)
(3.91565 0.0580427 0)
(3.85075 0.0601444 0)
(3.78333 0.0622999 0)
(3.71327 0.0645013 0)
(3.64046 0.0667387 0)
(3.56477 0.0690004 0)
(3.48607 0.0712729 0)
(3.40427 0.0735398 0)
(3.31923 0.0757826 0)
(3.23087 0.0779796 0)
(3.1391 0.0801064 0)
(3.04383 0.0821351 0)
(2.94502 0.0840352 0)
(2.84262 0.0857724 0)
(2.73663 0.08731 0)
(2.62707 0.0886082 0)
(2.514 0.0896252 0)
(2.39753 0.0903176 0)
(2.27782 0.0906415 0)
(2.15509 0.0905532 0)
(2.02964 0.0900116 0)
(1.90184 0.0889788 0)
(1.77215 0.0874232 0)
(1.64112 0.085322 0)
(1.5094 0.082664 0)
(1.37773 0.0794524 0)
(1.24693 0.0757052 0)
(1.11789 0.0714571 0)
(0.991551 0.0667649 0)
(0.868842 0.0617096 0)
(0.750664 0.0563979 0)
(0.637827 0.0510161 0)
(0.531081 0.0456841 0)
(0.430976 0.0405711 0)
(0.337965 0.0357925 0)
(0.252399 0.0313562 0)
(0.174532 0.0271446 0)
(0.104472 0.0229611 0)
(0.0421845 0.0186774 0)
(-0.0121736 0.0143412 0)
(-0.0587815 0.0100646 0)
(-0.0979956 0.00619969 0)
(-0.130634 0.00302497 0)
(-0.157424 0.000573089 0)
(-0.178611 -0.00172082 0)
(-0.194187 -0.00454864 0)
(-0.203921 -0.00840303 0)
(-0.207409 -0.013186 0)
(-0.204362 -0.018496 0)
(-0.19515 -0.0229918 0)
(-0.181852 -0.0243342 0)
(10.0003 0.0614122 0)
(10.0359 0.160323 0)
(10.0898 0.227822 0)
(10.1516 0.268451 0)
(10.2101 0.293285 0)
(10.2592 0.312151 0)
(10.298 0.330012 0)
(10.3292 0.347478 0)
(10.3556 0.363365 0)
(10.3789 0.37657 0)
(10.3993 0.386698 0)
(10.4165 0.393927 0)
(10.4298 0.398641 0)
(10.4388 0.401147 0)
(10.4434 0.40159 0)
(10.4434 0.399978 0)
(10.4391 0.39627 0)
(10.4304 0.390445 0)
(10.4173 0.382564 0)
(10.4001 0.372756 0)
(10.3788 0.361207 0)
(10.3536 0.348149 0)
(10.3248 0.333853 0)
(10.2925 0.318615 0)
(10.2571 0.302748 0)
(10.219 0.286566 0)
(10.1783 0.270369 0)
(10.1356 0.254436 0)
(10.0912 0.239005 0)
(10.0454 0.224274 0)
(9.99846 0.210389 0)
(9.95082 0.197451 0)
(9.90269 0.185512 0)
(9.85431 0.174589 0)
(9.80585 0.16466 0)
(9.75751 0.155688 0)
(9.70936 0.147612 0)
(9.66154 0.140379 0)
(9.61412 0.133933 0)
(9.56715 0.12821 0)
(9.52065 0.123135 0)
(9.47461 0.118629 0)
(9.42903 0.114615 0)
(9.38393 0.111021 0)
(9.33928 0.107782 0)
(9.29508 0.104845 0)
(9.25132 0.102162 0)
(9.20797 0.0996939 0)
(9.16504 0.0974093 0)
(9.12249 0.0952811 0)
(9.08031 0.0932873 0)
(9.0385 0.0914099 0)
(8.99703 0.0896344 0)
(8.9559 0.0879495 0)
(8.91509 0.0863463 0)
(8.87459 0.0848177 0)
(8.8344 0.0833589 0)
(8.79449 0.0819659 0)
(8.75485 0.0806363 0)
(8.71549 0.0793683 0)
(8.67638 0.0781609 0)
(8.63752 0.0770137 0)
(8.5989 0.0759268 0)
(8.5605 0.0749005 0)
(8.5223 0.0739355 0)
(8.48431 0.0730328 0)
(8.44649 0.0721933 0)
(8.40884 0.0714183 0)
(8.37134 0.070709 0)
(8.33397 0.0700671 0)
(8.29672 0.069494 0)
(8.25956 0.0689914 0)
(8.22247 0.0685612 0)
(8.18542 0.0682053 0)
(8.14841 0.0679257 0)
(8.11139 0.0677242 0)
(8.07435 0.067603 0)
(8.03725 0.0675642 0)
(8.00006 0.0676102 0)
(7.96276 0.0677434 0)
(7.9253 0.0679664 0)
(7.88766 0.068282 0)
(7.84979 0.068693 0)
(7.81165 0.0692026 0)
(7.7732 0.0698143 0)
(7.7344 0.0705314 0)
(7.6952 0.0713578 0)
(7.65555 0.0722976 0)
(7.6154 0.0733549 0)
(7.57469 0.0745344 0)
(7.53336 0.0758406 0)
(7.49136 0.0772786 0)
(7.44861 0.0788537 0)
(7.40504 0.0805714 0)
(7.36059 0.0824374 0)
(7.31518 0.0844577 0)
(7.26873 0.0866385 0)
(7.22114 0.0889863 0)
(7.17234 0.0915077 0)
(7.12222 0.0942093 0)
(7.07068 0.0970982 0)
(7.01763 0.100181 0)
(6.96293 0.103465 0)
(6.90649 0.106958 0)
(6.84817 0.110665 0)
(6.78784 0.114592 0)
(6.72537 0.118746 0)
(6.6606 0.123131 0)
(6.59339 0.12775 0)
(6.52357 0.132607 0)
(6.45098 0.137702 0)
(6.37543 0.143035 0)
(6.29676 0.148605 0)
(6.21475 0.154406 0)
(6.12922 0.160431 0)
(6.03994 0.16667 0)
(5.94672 0.173111 0)
(5.84931 0.179735 0)
(5.7475 0.18652 0)
(5.64105 0.193438 0)
(5.52972 0.200456 0)
(5.41327 0.207533 0)
(5.29146 0.214621 0)
(5.16406 0.221661 0)
(5.03083 0.228588 0)
(4.89156 0.235323 0)
(4.74604 0.241779 0)
(4.5941 0.247853 0)
(4.43559 0.253432 0)
(4.2704 0.258386 0)
(4.09848 0.262573 0)
(3.91983 0.265836 0)
(3.73455 0.268006 0)
(3.54282 0.268903 0)
(3.34496 0.268348 0)
(3.14138 0.266166 0)
(2.9327 0.262199 0)
(2.71971 0.256311 0)
(2.50341 0.24842 0)
(2.28507 0.238494 0)
(2.0662 0.226597 0)
(1.84865 0.212874 0)
(1.63448 0.197573 0)
(1.42599 0.181033 0)
(1.22559 0.163656 0)
(1.03562 0.145887 0)
(0.858138 0.128206 0)
(0.694677 0.11113 0)
(0.5461 0.0952792 0)
(0.412261 0.0810546 0)
(0.292824 0.0684894 0)
(0.187365 0.0570705 0)
(0.0953849 0.046162 0)
(0.0168623 0.0352643 0)
(-0.0490818 0.023644 0)
(-0.103387 0.0110807 0)
(-0.146989 -0.00231409 0)
(-0.180028 -0.0159822 0)
(-0.202098 -0.027352 0)
(-0.214396 -0.031862 0)
(10.0002 0.0417812 0)
(10.0198 0.117276 0)
(10.0537 0.178916 0)
(10.0983 0.224502 0)
(10.1468 0.256569 0)
(10.1935 0.280048 0)
(10.2355 0.299309 0)
(10.2732 0.316684 0)
(10.3082 0.332558 0)
(10.3422 0.346426 0)
(10.376 0.3578 0)
(10.4096 0.366541 0)
(10.4428 0.372808 0)
(10.4748 0.376853 0)
(10.5055 0.378873 0)
(10.5345 0.378969 0)
(10.5616 0.377176 0)
(10.5867 0.373523 0)
(10.6096 0.368075 0)
(10.6301 0.360941 0)
(10.6482 0.352266 0)
(10.6636 0.342233 0)
(10.6764 0.331053 0)
(10.6863 0.318961 0)
(10.6935 0.306207 0)
(10.698 0.293045 0)
(10.6999 0.279721 0)
(10.6993 0.266465 0)
(10.6964 0.253484 0)
(10.6915 0.240952 0)
(10.6846 0.229008 0)
(10.6761 0.217755 0)
(10.6662 0.207266 0)
(10.655 0.197575 0)
(10.6427 0.188699 0)
(10.6296 0.180626 0)
(10.6156 0.173333 0)
(10.6011 0.166772 0)
(10.5861 0.160884 0)
(10.5706 0.155605 0)
(10.5546 0.150876 0)
(10.5384 0.146638 0)
(10.5217 0.142833 0)
(10.5048 0.139409 0)
(10.4877 0.136319 0)
(10.4702 0.133518 0)
(10.4525 0.130967 0)
(10.4346 0.128634 0)
(10.4164 0.126487 0)
(10.398 0.124501 0)
(10.3793 0.122656 0)
(10.3604 0.120931 0)
(10.3412 0.119313 0)
(10.3218 0.117788 0)
(10.3022 0.116346 0)
(10.2823 0.114979 0)
(10.2622 0.113681 0)
(10.2418 0.112448 0)
(10.2212 0.111276 0)
(10.2004 0.110162 0)
(10.1793 0.109107 0)
(10.158 0.108108 0)
(10.1364 0.107168 0)
(10.1146 0.106285 0)
(10.0925 0.105462 0)
(10.0702 0.1047 0)
(10.0477 0.104001 0)
(10.0249 0.103367 0)
(10.0018 0.1028 0)
(9.97855 0.102304 0)
(9.95498 0.101881 0)
(9.93115 0.101535 0)
(9.90705 0.101268 0)
(9.88266 0.101084 0)
(9.85797 0.100988 0)
(9.83298 0.100982 0)
(9.80766 0.101071 0)
(9.78201 0.101259 0)
(9.75602 0.10155 0)
(9.72965 0.101949 0)
(9.70289 0.102461 0)
(9.67573 0.10309 0)
(9.64813 0.103842 0)
(9.62007 0.104723 0)
(9.59152 0.105737 0)
(9.56246 0.106893 0)
(9.53285 0.108195 0)
(9.50265 0.109651 0)
(9.47183 0.111268 0)
(9.44035 0.113054 0)
(9.40816 0.115017 0)
(9.37521 0.117165 0)
(9.34146 0.119507 0)
(9.30685 0.122053 0)
(9.27133 0.124812 0)
(9.23483 0.127794 0)
(9.19728 0.13101 0)
(9.15862 0.134472 0)
(9.11877 0.138191 0)
(9.07765 0.142178 0)
(9.03517 0.146446 0)
(8.99124 0.151009 0)
(8.94576 0.155878 0)
(8.89863 0.161068 0)
(8.84973 0.166591 0)
(8.79895 0.172462 0)
(8.74615 0.178693 0)
(8.69121 0.185299 0)
(8.63397 0.192293 0)
(8.57428 0.199687 0)
(8.51197 0.207493 0)
(8.44688 0.215722 0)
(8.37881 0.224383 0)
(8.30756 0.233483 0)
(8.23292 0.243027 0)
(8.15467 0.253019 0)
(8.07256 0.263458 0)
(7.98636 0.27434 0)
(7.89577 0.285657 0)
(7.80054 0.297394 0)
(7.70034 0.309532 0)
(7.59487 0.322043 0)
(7.4838 0.334893 0)
(7.36678 0.348035 0)
(7.24344 0.361415 0)
(7.11341 0.374964 0)
(6.97631 0.388599 0)
(6.83172 0.402224 0)
(6.67925 0.415722 0)
(6.51848 0.428961 0)
(6.349 0.441784 0)
(6.17042 0.454014 0)
(5.98234 0.465449 0)
(5.78442 0.475861 0)
(5.57635 0.48499 0)
(5.35787 0.49255 0)
(5.1288 0.498231 0)
(4.88905 0.501703 0)
(4.63869 0.50262 0)
(4.37792 0.500622 0)
(4.10719 0.495346 0)
(3.8272 0.486437 0)
(3.53895 0.473568 0)
(3.24385 0.456487 0)
(2.94376 0.435052 0)
(2.64106 0.409297 0)
(2.33881 0.379498 0)
(2.04066 0.346231 0)
(1.75091 0.310375 0)
(1.4742 0.273187 0)
(1.21526 0.236104 0)
(0.9783 0.200607 0)
(0.766252 0.167878 0)
(0.580289 0.138991 0)
(0.418552 0.11364 0)
(0.278356 0.0899217 0)
(0.156742 0.0648801 0)
(0.0533774 0.0379211 0)
(-0.0313423 0.0120741 0)
(-0.097354 -0.00548167 0)
(10.0001 0.0316627 0)
(10.0128 0.0917411 0)
(10.036 0.145037 0)
(10.0682 0.188698 0)
(10.1059 0.222282 0)
(10.1451 0.247718 0)
(10.1829 0.267813 0)
(10.2183 0.284868 0)
(10.2518 0.299981 0)
(10.2843 0.313282 0)
(10.3168 0.324517 0)
(10.3498 0.333472 0)
(10.383 0.340133 0)
(10.4162 0.344634 0)
(10.449 0.347155 0)
(10.4811 0.347845 0)
(10.5124 0.346807 0)
(10.5427 0.344118 0)
(10.5719 0.339858 0)
(10.5998 0.334126 0)
(10.6264 0.32705 0)
(10.6514 0.318784 0)
(10.6747 0.309507 0)
(10.6961 0.299414 0)
(10.7158 0.288714 0)
(10.7335 0.277616 0)
(10.7493 0.266327 0)
(10.7632 0.25504 0)
(10.7754 0.243932 0)
(10.7859 0.233153 0)
(10.7948 0.222829 0)
(10.8024 0.213055 0)
(10.8087 0.203902 0)
(10.8139 0.195413 0)
(10.8182 0.187609 0)
(10.8216 0.18049 0)
(10.8243 0.174037 0)
(10.8263 0.168217 0)
(10.8278 0.162983 0)
(10.8289 0.158286 0)
(10.8295 0.154079 0)
(10.8297 0.150317 0)
(10.8296 0.146955 0)
(10.8291 0.143951 0)
(10.8284 0.141266 0)
(10.8273 0.138862 0)
(10.826 0.136704 0)
(10.8244 0.134759 0)
(10.8225 0.133 0)
(10.8203 0.131402 0)
(10.8179 0.129944 0)
(10.8152 0.128608 0)
(10.8121 0.127378 0)
(10.8088 0.126241 0)
(10.8052 0.125188 0)
(10.8013 0.12421 0)
(10.7971 0.1233 0)
(10.7926 0.122454 0)
(10.7878 0.121669 0)
(10.7826 0.120942 0)
(10.7772 0.120271 0)
(10.7714 0.119657 0)
(10.7653 0.1191 0)
(10.7588 0.118601 0)
(10.752 0.118161 0)
(10.7449 0.117782 0)
(10.7374 0.117467 0)
(10.7296 0.117218 0)
(10.7215 0.117039 0)
(10.713 0.116933 0)
(10.7042 0.116903 0)
(10.6949 0.116954 0)
(10.6854 0.117089 0)
(10.6754 0.117314 0)
(10.6651 0.117631 0)
(10.6544 0.118048 0)
(10.6433 0.118568 0)
(10.6318 0.119197 0)
(10.6198 0.11994 0)
(10.6075 0.120805 0)
(10.5947 0.121796 0)
(10.5814 0.122921 0)
(10.5677 0.124187 0)
(10.5534 0.125601 0)
(10.5387 0.127171 0)
(10.5234 0.128905 0)
(10.5076 0.130812 0)
(10.4912 0.1329 0)
(10.4741 0.135181 0)
(10.4565 0.137663 0)
(10.4382 0.140359 0)
(10.4192 0.143278 0)
(10.3994 0.146433 0)
(10.3789 0.149837 0)
(10.3575 0.153503 0)
(10.3353 0.157445 0)
(10.3122 0.161676 0)
(10.2881 0.166214 0)
(10.263 0.171073 0)
(10.2368 0.176271 0)
(10.2095 0.181825 0)
(10.1809 0.187752 0)
(10.1511 0.194072 0)
(10.1199 0.200804 0)
(10.0872 0.207967 0)
(10.0529 0.215584 0)
(10.017 0.223674 0)
(9.97938 0.232259 0)
(9.93983 0.241361 0)
(9.89827 0.251002 0)
(9.85457 0.261203 0)
(9.80857 0.271987 0)
(9.76013 0.283373 0)
(9.70907 0.295383 0)
(9.65521 0.308035 0)
(9.59836 0.321346 0)
(9.5383 0.335332 0)
(9.47481 0.350005 0)
(9.40765 0.365374 0)
(9.33654 0.381444 0)
(9.26121 0.398215 0)
(9.18136 0.41568 0)
(9.09664 0.433827 0)
(9.00673 0.452633 0)
(8.91122 0.472067 0)
(8.80973 0.492087 0)
(8.70182 0.512635 0)
(8.58703 0.53364 0)
(8.46486 0.555014 0)
(8.3348 0.576648 0)
(8.19629 0.598412 0)
(8.04875 0.620151 0)
(7.89156 0.641682 0)
(7.7241 0.66279 0)
(7.54569 0.683226 0)
(7.35567 0.7027 0)
(7.15335 0.720885 0)
(6.93806 0.737415 0)
(6.70914 0.751887 0)
(6.46598 0.763855 0)
(6.20803 0.77284 0)
(5.93487 0.778323 0)
(5.64621 0.779758 0)
(5.34198 0.776558 0)
(5.02235 0.768129 0)
(4.68783 0.753888 0)
(4.33938 0.733279 0)
(3.97847 0.705811 0)
(3.60725 0.671115 0)
(3.22865 0.62906 0)
(2.84656 0.579869 0)
(2.46619 0.524278 0)
(2.09402 0.463712 0)
(1.7379 0.4003 0)
(1.40612 0.336873 0)
(1.10617 0.276202 0)
(0.842566 0.219734 0)
(0.615859 0.168111 0)
(0.42213 0.121654 0)
(0.25882 0.0833215 0)
(10.0001 0.0253327 0)
(10.0092 0.074293 0)
(10.0261 0.11944 0)
(10.0502 0.158588 0)
(10.0797 0.190695 0)
(10.1121 0.216192 0)
(10.1451 0.23653 0)
(10.1773 0.253354 0)
(10.2083 0.267845 0)
(10.2386 0.280501 0)
(10.2688 0.29133 0)
(10.2993 0.300185 0)
(10.3301 0.30698 0)
(10.3611 0.311753 0)
(10.3921 0.314634 0)
(10.4226 0.315777 0)
(10.4527 0.315315 0)
(10.482 0.313357 0)
(10.5106 0.309997 0)
(10.5383 0.305332 0)
(10.5649 0.299476 0)
(10.5905 0.292561 0)
(10.6148 0.284739 0)
(10.6378 0.276178 0)
(10.6594 0.267053 0)
(10.6795 0.257544 0)
(10.6982 0.247827 0)
(10.7155 0.238068 0)
(10.7314 0.228419 0)
(10.746 0.219012 0)
(10.7594 0.20996 0)
(10.7716 0.201351 0)
(10.7829 0.193251 0)
(10.7933 0.185704 0)
(10.8029 0.178734 0)
(10.8119 0.172346 0)
(10.8203 0.166529 0)
(10.8281 0.161261 0)
(10.8356 0.156508 0)
(10.8427 0.152236 0)
(10.8494 0.148407 0)
(10.8559 0.144986 0)
(10.8622 0.141936 0)
(10.8682 0.139223 0)
(10.874 0.136813 0)
(10.8797 0.134671 0)
(10.8851 0.132768 0)
(10.8904 0.131073 0)
(10.8955 0.129562 0)
(10.9005 0.128212 0)
(10.9053 0.127003 0)
(10.9099 0.125917 0)
(10.9143 0.124941 0)
(10.9186 0.124062 0)
(10.9226 0.123271 0)
(10.9265 0.122559 0)
(10.9301 0.12192 0)
(10.9336 0.12135 0)
(10.9368 0.120845 0)
(10.9398 0.120403 0)
(10.9425 0.120023 0)
(10.9451 0.119704 0)
(10.9473 0.119447 0)
(10.9494 0.119252 0)
(10.9512 0.119122 0)
(10.9527 0.119057 0)
(10.954 0.119062 0)
(10.955 0.119139 0)
(10.9558 0.119291 0)
(10.9563 0.119522 0)
(10.9565 0.119835 0)
(10.9564 0.120236 0)
(10.956 0.120728 0)
(10.9553 0.121316 0)
(10.9544 0.122006 0)
(10.9531 0.122803 0)
(10.9515 0.123713 0)
(10.9495 0.124741 0)
(10.9473 0.125895 0)
(10.9447 0.127181 0)
(10.9417 0.128607 0)
(10.9384 0.130179 0)
(10.9346 0.131907 0)
(10.9305 0.133798 0)
(10.926 0.135862 0)
(10.9211 0.138109 0)
(10.9157 0.140548 0)
(10.9099 0.143191 0)
(10.9036 0.146048 0)
(10.8968 0.149132 0)
(10.8895 0.152456 0)
(10.8816 0.156032 0)
(10.8732 0.159876 0)
(10.8642 0.164001 0)
(10.8546 0.168425 0)
(10.8443 0.173163 0)
(10.8334 0.178233 0)
(10.8217 0.183654 0)
(10.8092 0.189444 0)
(10.796 0.195625 0)
(10.7819 0.202218 0)
(10.7669 0.209245 0)
(10.7509 0.216729 0)
(10.734 0.224695 0)
(10.716 0.233168 0)
(10.6968 0.242175 0)
(10.6765 0.251743 0)
(10.6548 0.2619 0)
(10.6318 0.272676 0)
(10.6073 0.2841 0)
(10.5813 0.296202 0)
(10.5537 0.309015 0)
(10.5242 0.322569 0)
(10.4929 0.336895 0)
(10.4595 0.352024 0)
(10.4239 0.367987 0)
(10.386 0.384814 0)
(10.3456 0.402531 0)
(10.3025 0.421165 0)
(10.2565 0.440739 0)
(10.2073 0.461273 0)
(10.1548 0.482781 0)
(10.0986 0.505273 0)
(10.0385 0.528753 0)
(9.97407 0.553215 0)
(9.90508 0.578646 0)
(9.8311 0.605018 0)
(9.7517 0.632295 0)
(9.66645 0.66042 0)
(9.57483 0.689322 0)
(9.47632 0.718906 0)
(9.37032 0.749057 0)
(9.25619 0.779629 0)
(9.13325 0.810451 0)
(9.00074 0.841315 0)
(8.85786 0.871985 0)
(8.70375 0.902179 0)
(8.53751 0.931579 0)
(8.35817 0.959815 0)
(8.16473 0.986479 0)
(7.95615 1.0111 0)
(7.73137 1.03317 0)
(7.48935 1.0521 0)
(7.22904 1.06724 0)
(6.94947 1.07788 0)
(6.64978 1.08323 0)
(6.32929 1.08245 0)
(5.98754 1.0747 0)
(5.62443 1.05908 0)
(5.24033 1.03473 0)
(4.83619 1.00086 0)
(4.41381 0.956772 0)
(3.97597 0.901954 0)
(3.52671 0.836132 0)
(3.07145 0.759554 0)
(2.61747 0.673216 0)
(2.17413 0.579273 0)
(1.75267 0.481071 0)
(1.36466 0.383399 0)
(1.02039 0.292069 0)
(10.0001 0.020837 0)
(10.007 0.0615059 0)
(10.02 0.0997288 0)
(10.0387 0.134103 0)
(10.0623 0.163616 0)
(10.0892 0.188086 0)
(10.1177 0.208099 0)
(10.1466 0.22464 0)
(10.1751 0.23866 0)
(10.2033 0.250748 0)
(10.2314 0.261108 0)
(10.2596 0.269712 0)
(10.2882 0.276489 0)
(10.317 0.281429 0)
(10.3459 0.284609 0)
(10.3745 0.286157 0)
(10.4028 0.286209 0)
(10.4305 0.284883 0)
(10.4576 0.282286 0)
(10.4839 0.278515 0)
(10.5094 0.273674 0)
(10.5339 0.26788 0)
(10.5574 0.261262 0)
(10.5798 0.253965 0)
(10.6011 0.24614 0)
(10.6211 0.23794 0)
(10.64 0.229517 0)
(10.6576 0.221014 0)
(10.6741 0.212563 0)
(10.6895 0.204281 0)
(10.7038 0.196268 0)
(10.7172 0.188606 0)
(10.7298 0.181355 0)
(10.7415 0.174561 0)
(10.7526 0.168248 0)
(10.7631 0.162428 0)
(10.7731 0.157096 0)
(10.7827 0.152241 0)
(10.7918 0.147841 0)
(10.8007 0.143871 0)
(10.8093 0.140302 0)
(10.8177 0.137107 0)
(10.8259 0.134255 0)
(10.8339 0.131716 0)
(10.8417 0.129462 0)
(10.8495 0.127464 0)
(10.8571 0.125694 0)
(10.8646 0.124127 0)
(10.872 0.122741 0)
(10.8793 0.121513 0)
(10.8865 0.120428 0)
(10.8936 0.119469 0)
(10.9005 0.118622 0)
(10.9074 0.117878 0)
(10.9141 0.117226 0)
(10.9208 0.116658 0)
(10.9273 0.11617 0)
(10.9336 0.115757 0)
(10.9399 0.115414 0)
(10.946 0.115141 0)
(10.9519 0.114935 0)
(10.9577 0.114796 0)
(10.9634 0.114725 0)
(10.9689 0.114722 0)
(10.9742 0.11479 0)
(10.9794 0.11493 0)
(10.9844 0.115144 0)
(10.9892 0.115436 0)
(10.9939 0.115809 0)
(10.9983 0.116267 0)
(11.0026 0.116814 0)
(11.0066 0.117455 0)
(11.0105 0.118193 0)
(11.0142 0.119035 0)
(11.0176 0.119985 0)
(11.0209 0.121049 0)
(11.0239 0.122234 0)
(11.0267 0.123546 0)
(11.0293 0.124992 0)
(11.0316 0.126579 0)
(11.0336 0.128316 0)
(11.0354 0.13021 0)
(11.037 0.13227 0)
(11.0382 0.134506 0)
(11.0392 0.136927 0)
(11.0399 0.139545 0)
(11.0403 0.142369 0)
(11.0403 0.145413 0)
(11.0401 0.148687 0)
(11.0394 0.152206 0)
(11.0385 0.155984 0)
(11.0371 0.160035 0)
(11.0353 0.164374 0)
(11.0332 0.169019 0)
(11.0306 0.173987 0)
(11.0275 0.179296 0)
(11.024 0.184965 0)
(11.02 0.191016 0)
(11.0155 0.197471 0)
(11.0104 0.20435 0)
(11.0047 0.21168 0)
(10.9985 0.219485 0)
(10.9916 0.227792 0)
(10.984 0.236628 0)
(10.9757 0.246023 0)
(10.9666 0.256007 0)
(10.9567 0.266611 0)
(10.946 0.27787 0)
(10.9344 0.289817 0)
(10.9218 0.302488 0)
(10.9082 0.315919 0)
(10.8934 0.33015 0)
(10.8776 0.345218 0)
(10.8604 0.361163 0)
(10.842 0.378026 0)
(10.8221 0.395848 0)
(10.8006 0.414668 0)
(10.7776 0.434527 0)
(10.7527 0.455466 0)
(10.7259 0.477522 0)
(10.697 0.500732 0)
(10.6659 0.52513 0)
(10.6324 0.550746 0)
(10.5962 0.577607 0)
(10.5571 0.605733 0)
(10.5149 0.635137 0)
(10.4693 0.665827 0)
(10.4199 0.697795 0)
(10.3665 0.731027 0)
(10.3085 0.765487 0)
(10.2457 0.801132 0)
(10.1774 0.837888 0)
(10.1032 0.875671 0)
(10.0224 0.914359 0)
(9.9344 0.953817 0)
(9.83843 0.993861 0)
(9.73369 1.03429 0)
(9.61928 1.07484 0)
(9.49424 1.11523 0)
(9.35748 1.15509 0)
(9.20787 1.19405 0)
(9.04415 1.2316 0)
(8.86501 1.26725 0)
(8.66901 1.30038 0)
(8.45471 1.33032 0)
(8.22058 1.35629 0)
(7.96509 1.37749 0)
(7.6867 1.39297 0)
(7.38399 1.40175 0)
(7.05562 1.40273 0)
(6.70048 1.39475 0)
(6.31785 1.37654 0)
(5.90748 1.34684 0)
(5.4698 1.30437 0)
(5.00608 1.24795 0)
(4.51884 1.17667 0)
(4.0121 1.08998 0)
(3.49172 0.987955 0)
(2.96555 0.871609 0)
(2.444 0.743645 0)
(10.0001 0.0174419 0)
(10.0056 0.0516767 0)
(10.016 0.0842458 0)
(10.0311 0.114219 0)
(10.0503 0.140789 0)
(10.0729 0.163584 0)
(10.0976 0.182739 0)
(10.1233 0.198759 0)
(10.1494 0.212281 0)
(10.1755 0.223829 0)
(10.2017 0.233686 0)
(10.2281 0.241931 0)
(10.2547 0.248546 0)
(10.2816 0.253519 0)
(10.3085 0.256892 0)
(10.3354 0.258758 0)
(10.3621 0.259235 0)
(10.3883 0.25844 0)
(10.4139 0.25648 0)
(10.4389 0.253454 0)
(10.4632 0.249461 0)
(10.4867 0.244605 0)
(10.5093 0.239 0)
(10.531 0.232771 0)
(10.5516 0.226047 0)
(10.5712 0.218961 0)
(10.5897 0.211644 0)
(10.6072 0.20422 0)
(10.6236 0.196804 0)
(10.6391 0.1895 0)
(10.6537 0.182395 0)
(10.6674 0.175565 0)
(10.6803 0.169065 0)
(10.6925 0.162939 0)
(10.704 0.157214 0)
(10.715 0.151905 0)
(10.7256 0.147014 0)
(10.7356 0.142536 0)
(10.7454 0.138459 0)
(10.7548 0.134765 0)
(10.764 0.131433 0)
(10.7729 0.128439 0)
(10.7817 0.12576 0)
(10.7902 0.12337 0)
(10.7987 0.121244 0)
(10.807 0.119359 0)
(10.8152 0.117691 0)
(10.8233 0.116217 0)
(10.8313 0.114918 0)
(10.8392 0.113775 0)
(10.847 0.112773 0)
(10.8547 0.111898 0)
(10.8624 0.111136 0)
(10.87 0.11048 0)
(10.8775 0.109918 0)
(10.8849 0.109446 0)
(10.8922 0.109056 0)
(10.8994 0.108745 0)
(10.9065 0.10851 0)
(10.9135 0.108348 0)
(10.9204 0.108257 0)
(10.9272 0.108239 0)
(10.9339 0.108292 0)
(10.9405 0.108418 0)
(10.947 0.108618 0)
(10.9534 0.108895 0)
(10.9596 0.109251 0)
(10.9657 0.109688 0)
(10.9717 0.110211 0)
(10.9775 0.110824 0)
(10.9832 0.111529 0)
(10.9888 0.112332 0)
(10.9942 0.113239 0)
(10.9995 0.114253 0)
(11.0046 0.11538 0)
(11.0096 0.116627 0)
(11.0144 0.118001 0)
(11.019 0.119507 0)
(11.0235 0.121153 0)
(11.0278 0.122948 0)
(11.0319 0.124898 0)
(11.0358 0.127014 0)
(11.0396 0.129304 0)
(11.0431 0.131777 0)
(11.0465 0.134445 0)
(11.0496 0.137318 0)
(11.0525 0.140409 0)
(11.0552 0.143728 0)
(11.0576 0.14729 0)
(11.0599 0.151109 0)
(11.0618 0.155199 0)
(11.0635 0.159575 0)
(11.0649 0.164255 0)
(11.066 0.169256 0)
(11.0668 0.174595 0)
(11.0673 0.180294 0)
(11.0675 0.186372 0)
(11.0673 0.192851 0)
(11.0668 0.199754 0)
(11.0659 0.207106 0)
(11.0646 0.214932 0)
(11.0629 0.223259 0)
(11.0608 0.232116 0)
(11.0582 0.241532 0)
(11.0552 0.251538 0)
(11.0516 0.262169 0)
(11.0475 0.273457 0)
(11.0429 0.285439 0)
(11.0377 0.298153 0)
(11.0318 0.311638 0)
(11.0253 0.325935 0)
(11.0181 0.341085 0)
(11.0102 0.357134 0)
(11.0015 0.374125 0)
(10.9919 0.392105 0)
(10.9815 0.411122 0)
(10.9701 0.431224 0)
(10.9577 0.45246 0)
(10.9442 0.474879 0)
(10.9295 0.49853 0)
(10.9136 0.523463 0)
(10.8962 0.549725 0)
(10.8774 0.577363 0)
(10.857 0.60642 0)
(10.8347 0.636938 0)
(10.8106 0.668952 0)
(10.7843 0.702494 0)
(10.7557 0.737587 0)
(10.7246 0.774248 0)
(10.6905 0.812482 0)
(10.6534 0.852282 0)
(10.6127 0.893629 0)
(10.5682 0.936483 0)
(10.5193 0.98079 0)
(10.4656 1.02647 0)
(10.4064 1.07342 0)
(10.3412 1.1215 0)
(10.2692 1.17055 0)
(10.1895 1.22035 0)
(10.1013 1.27067 0)
(10.0036 1.32117 0)
(9.89513 1.37151 0)
(9.77469 1.42125 0)
(9.64089 1.46991 0)
(9.49219 1.51689 0)
(9.32696 1.56155 0)
(9.1434 1.6031 0)
(8.93964 1.64071 0)
(8.71365 1.67337 0)
(8.46339 1.70003 0)
(8.18674 1.71946 0)
(7.88163 1.73034 0)
(7.54612 1.73123 0)
(7.1784 1.72054 0)
(6.77708 1.69664 0)
(6.34118 1.65774 0)
(5.87071 1.60226 0)
(5.36643 1.52851 0)
(4.83074 1.43547 0)
(4.26756 1.32259 0)
(10 0.0147646 0)
(10.0046 0.0438383 0)
(10.0132 0.0717482 0)
(10.0257 0.0978079 0)
(10.0419 0.121427 0)
(10.0611 0.142213 0)
(10.0826 0.160094 0)
(10.1056 0.175285 0)
(10.1293 0.188163 0)
(10.1535 0.199117 0)
(10.1779 0.208427 0)
(10.2025 0.21623 0)
(10.2274 0.222564 0)
(10.2526 0.227438 0)
(10.278 0.230879 0)
(10.3033 0.232952 0)
(10.3285 0.233751 0)
(10.3533 0.233382 0)
(10.3778 0.231946 0)
(10.4016 0.229542 0)
(10.4249 0.226262 0)
(10.4474 0.222202 0)
(10.4692 0.217464 0)
(10.4901 0.212155 0)
(10.5102 0.206388 0)
(10.5293 0.200277 0)
(10.5475 0.193935 0)
(10.5648 0.18747 0)
(10.5812 0.180981 0)
(10.5966 0.17456 0)
(10.6112 0.168284 0)
(10.6251 0.162221 0)
(10.6382 0.156422 0)
(10.6506 0.150928 0)
(10.6625 0.145768 0)
(10.6738 0.140958 0)
(10.6846 0.136507 0)
(10.695 0.132413 0)
(10.705 0.128669 0)
(10.7147 0.125265 0)
(10.7241 0.122183 0)
(10.7333 0.119407 0)
(10.7423 0.116916 0)
(10.7511 0.114689 0)
(10.7598 0.112705 0)
(10.7683 0.110945 0)
(10.7767 0.109388 0)
(10.785 0.108015 0)
(10.7931 0.106809 0)
(10.8012 0.105755 0)
(10.8092 0.104837 0)
(10.8171 0.104044 0)
(10.8249 0.103364 0)
(10.8327 0.102789 0)
(10.8403 0.102311 0)
(10.8479 0.101922 0)
(10.8554 0.101618 0)
(10.8628 0.101395 0)
(10.8701 0.10125 0)
(10.8774 0.101181 0)
(10.8845 0.101185 0)
(10.8915 0.101265 0)
(10.8985 0.101418 0)
(10.9054 0.101647 0)
(10.9121 0.101953 0)
(10.9188 0.102338 0)
(10.9254 0.102805 0)
(10.9318 0.103356 0)
(10.9382 0.103995 0)
(10.9444 0.104727 0)
(10.9505 0.105554 0)
(10.9565 0.106483 0)
(10.9624 0.107517 0)
(10.9682 0.108663 0)
(10.9739 0.109925 0)
(10.9794 0.111311 0)
(10.9848 0.112827 0)
(10.9901 0.11448 0)
(10.9952 0.116277 0)
(11.0002 0.118227 0)
(11.005 0.120338 0)
(11.0097 0.122619 0)
(11.0143 0.12508 0)
(11.0187 0.12773 0)
(11.0229 0.13058 0)
(11.027 0.133643 0)
(11.0308 0.136929 0)
(11.0346 0.140451 0)