/*--------------------------------*- C++ -*----------------------------------*\
| =========                 |                                                 |
| \\      /  F ield         | OpenFOAM: The Open Source CFD Toolbox           |
|  \\    /   O peration     | Version:  2306                                  |
|   \\  /    A nd           | Website:  www.openfoam.com                      |
|    \\/     M anipulation  |                                                 |
\*---------------------------------------------------------------------------*/
FoamFile
{
    version     2.0;
    format      ascii;
    arch        "LSB;label=32;scalar=64";
    class       volScalarField;
    location    "0.275";
    object      p;
}
// * * * * * * * * * * * * * * * * * * * * * * * * * * * * * * * * * * * * * //

dimensions      [0 2 -2 0 0 0 0];

internalField   nonuniform List<scalar> 
17600
(
502.332
500.288
498.511
497.281
496.517
496.011
495.593
495.186
494.768
494.345
493.925
493.512
493.109
492.712
492.32
491.933
491.553
491.18
490.819
490.472
490.144
489.837
489.553
489.294
489.061
488.853
488.671
488.512
488.374
488.255
488.152
488.063
487.984
487.913
487.848
487.787
487.728
487.671
487.613
487.555
487.496
487.436
487.374
487.31
487.244
487.177
487.109
487.039
486.969
486.898
486.826
486.754
486.681
486.609
486.536
486.464
486.393
486.321
486.251
486.181
486.112
486.044
485.977
485.911
485.845
485.781
485.719
485.657
485.597
485.538
485.48
485.424
485.369
485.316
485.264
485.214
485.166
485.119
485.074
485.031
484.989
484.95
484.913
484.878
484.845
484.814
484.786
484.76
484.736
484.715
484.697
484.682
484.67
484.661
484.654
484.652
484.652
484.657
484.665
484.676
484.692
484.712
484.736
484.764
484.797
484.835
484.877
484.924
484.976
485.034
485.096
485.164
485.237
485.316
485.4
485.489
485.585
485.685
485.791
485.903
486.019
486.141
486.267
486.398
486.534
486.673
486.816
486.962
487.111
487.261
487.414
487.567
487.72
487.873
488.025
488.175
488.323
488.468
488.609
488.748
488.881
489.011
489.135
489.253
489.366
489.474
489.575
489.672
489.763
489.85
489.931
490.007
490.079
490.147
490.211
490.271
490.328
490.383
490.435
490.484
499.603
498.833
497.907
497.043
496.352
495.829
495.409
495.027
494.647
494.259
493.864
493.47
493.08
492.696
492.317
491.943
491.575
491.215
490.866
490.531
490.213
489.913
489.635
489.38
489.148
488.94
488.756
488.594
488.452
488.329
488.221
488.126
488.042
487.966
487.896
487.83
487.766
487.705
487.644
487.582
487.521
487.458
487.393
487.328
487.261
487.192
487.123
487.052
486.981
486.909
486.837
486.764
486.691
486.618
486.545
486.473
486.401
486.33
486.259
486.189
486.12
486.051
485.984
485.918
485.852
485.788
485.725
485.664
485.603
485.544
485.486
485.43
485.375
485.322
485.27
485.22
485.171
485.124
485.079
485.036
484.995
484.956
484.918
484.883
484.85
484.819
484.791
484.765
484.742
484.721
484.703
484.688
484.675
484.666
484.66
484.658
484.659
484.663
484.671
484.683
484.699
484.719
484.743
484.772
484.805
484.843
484.886
484.933
484.986
485.044
485.107
485.175
485.249
485.328
485.413
485.503
485.599
485.701
485.808
485.92
486.037
486.16
486.288
486.42
486.556
486.696
486.84
486.987
487.136
487.287
487.439
487.593
487.746
487.898
488.049
488.199
488.345
488.489
488.63
488.767
488.899
489.027
489.151
489.269
489.381
489.487
489.588
489.683
489.773
489.858
489.938
490.014
490.085
490.151
490.214
490.274
490.33
490.383
490.435
490.484
498.299
497.949
497.42
496.808
496.216
495.702
495.269
494.889
494.528
494.167
493.799
493.427
493.055
492.688
492.325
491.969
491.62
491.28
490.949
490.631
490.328
490.041
489.772
489.522
489.294
489.086
488.898
488.731
488.581
488.448
488.33
488.225
488.13
488.044
487.964
487.889
487.818
487.749
487.681
487.613
487.546
487.478
487.41
487.342
487.272
487.202
487.131
487.059
486.987
486.914
486.842
486.768
486.695
486.622
486.549
486.477
486.405
486.333
486.262
486.192
486.123
486.054
485.987
485.92
485.855
485.79
485.727
485.665
485.604
485.545
485.487
485.43
485.375
485.322
485.269
485.219
485.17
485.123
485.077
485.034
484.992
484.952
484.914
484.879
484.845
484.814
484.785
484.758
484.735
484.713
484.695
484.679
484.666
484.656
484.649
484.646
484.646
484.65
484.657
484.668
484.683
484.702
484.726
484.754
484.786
484.823
484.865
484.911
484.963
485.02
485.082
485.149
485.222
485.301
485.385
485.474
485.57
485.671
485.777
485.889
486.007
486.129
486.257
486.389
486.526
486.668
486.812
486.961
487.112
487.265
487.42
487.576
487.732
487.887
488.042
488.195
488.345
488.493
488.636
488.776
488.91
489.039
489.163
489.28
489.392
489.497
489.597
489.692
489.782
489.867
489.948
490.023
490.093
490.159
490.221
490.28
490.335
490.387
490.438
490.487
497.395
497.203
496.87
496.435
495.96
495.504
495.093
494.725
494.382
494.045
493.705
493.36
493.012
492.666
492.323
491.987
491.658
491.337
491.025
490.724
490.435
490.161
489.902
489.661
489.437
489.23
489.042
488.871
488.717
488.577
488.451
488.336
488.232
488.136
488.047
487.963
487.883
487.806
487.731
487.657
487.584
487.512
487.439
487.367
487.295
487.222
487.148
487.075
487.001
486.927
486.853
486.779
486.704
486.631
486.557
486.484
486.411
486.339
486.267
486.197
486.127
486.058
485.99
485.923
485.857
485.792
485.728
485.666
485.605
485.545
485.486
485.429
485.373
485.318
485.266
485.214
485.165
485.117
485.07
485.026
484.983
484.942
484.904
484.867
484.832
484.8
484.77
484.742
484.717
484.694
484.674
484.657
484.643
484.631
484.623
484.618
484.616
484.618
484.624
484.633
484.646
484.663
484.684
484.709
484.739
484.774
484.813
484.857
484.906
484.96
485.019
485.083
485.154
485.229
485.31
485.397
485.489
485.587
485.691
485.801
485.915
486.036
486.161
486.292
486.428
486.568
486.712
486.86
487.012
487.166
487.322
487.481
487.64
487.8
487.959
488.117
488.274
488.428
488.579
488.726
488.868
489.006
489.138
489.264
489.383
489.496
489.601
489.7
489.791
489.876
489.955
490.029
490.098
490.164
490.227
490.286
490.342
490.394
490.443
490.492
496.709
496.584
496.356
496.039
495.668
495.283
494.912
494.567
494.242
493.926
493.61
493.29
492.966
492.641
492.319
492.002
491.691
491.387
491.092
490.806
490.532
490.269
490.02
489.786
489.566
489.363
489.175
489.002
488.843
488.699
488.566
488.444
488.332
488.228
488.13
488.038
487.951
487.867
487.785
487.705
487.627
487.549
487.473
487.396
487.32
487.245
487.169
487.093
487.017
486.941
486.866
486.79
486.715
486.64
486.566
486.491
486.418
486.345
486.273
486.202
486.131
486.062
485.993
485.925
485.859
485.793
485.729
485.666
485.604
485.543
485.483
485.425
485.368
485.313
485.259
485.207
485.156
485.107
485.059
485.014
484.97
484.928
484.887
484.849
484.813
484.779
484.747
484.718
484.691
484.666
484.644
484.624
484.608
484.594
484.583
484.575
484.571
484.57
484.572
484.578
484.588
484.601
484.618
484.64
484.666
484.696
484.731
484.77
484.814
484.863
484.918
484.977
485.042
485.112
485.187
485.268
485.354
485.446
485.544
485.647
485.756
485.871
485.99
486.115
486.245
486.38
486.52
486.663
486.811
486.962
487.116
487.273
487.432
487.592
487.753
487.914
488.075
488.235
488.394
488.55
488.704
488.854
489
489.14
489.275
489.403
489.524
489.639
489.746
489.846
489.938
490.023
490.1
490.169
490.232
490.289
490.343
490.394
490.446
490.497
496.162
496.072
495.905
495.667
495.376
495.056
494.73
494.414
494.109
493.813
493.517
493.219
492.917
492.614
492.311
492.012
491.717
491.429
491.149
490.877
490.614
490.362
490.122
489.894
489.679
489.478
489.291
489.117
488.956
488.807
488.67
488.542
488.423
488.312
488.207
488.109
488.014
487.924
487.836
487.751
487.668
487.586
487.505
487.425
487.346
487.267
487.189
487.111
487.033
486.955
486.878
486.801
486.725
486.649
486.574
486.499
486.425
486.351
486.278
486.206
486.135
486.065
485.995
485.927
485.859
485.793
485.728
485.664
485.601
485.539
485.479
485.42
485.362
485.306
485.251
485.197
485.145
485.094
485.046
484.998
484.953
484.909
484.867
484.827
484.789
484.753
484.719
484.687
484.658
484.631
484.606
484.584
484.564
484.547
484.533
484.522
484.514
484.509
484.508
484.509
484.515
484.523
484.536
484.552
484.573
484.597
484.626
484.66
484.697
484.74
484.787
484.839
484.896
484.958
485.025
485.097
485.175
485.258
485.346
485.44
485.539
485.643
485.753
485.868
485.988
486.113
486.242
486.377
486.515
486.658
486.804
486.954
487.106
487.261
487.419
487.578
487.739
487.9
488.062
488.223
488.383
488.543
488.7
488.854
489.005
489.152
489.295
489.433
489.565
489.69
489.808
489.917
490.018
490.111
490.194
490.27
490.337
490.396
490.449
490.497
495.713
495.644
495.516
495.331
495.098
494.831
494.549
494.263
493.981
493.703
493.427
493.148
492.866
492.582
492.297
492.015
491.736
491.462
491.195
490.935
490.683
490.44
490.208
489.986
489.776
489.578
489.392
489.218
489.055
488.903
488.761
488.629
488.505
488.388
488.278
488.173
488.073
487.977
487.884
487.794
487.706
487.62
487.536
487.453
487.37
487.289
487.208
487.128
487.048
486.969
486.89
486.812
486.735
486.658
486.581
486.505
486.43
486.356
486.282
486.21
486.138
486.067
485.996
485.927
485.859
485.792
485.726
485.661
485.597
485.534
485.473
485.413
485.354
485.296
485.24
485.185
485.132
485.08
485.03
484.981
484.933
484.888
484.844
484.802
484.762
484.724
484.687
484.653
484.621
484.591
484.564
484.538
484.516
484.495
484.478
484.463
484.451
484.442
484.435
484.432
484.433
484.436
484.443
484.454
484.468
484.486
484.508
484.534
484.564
484.599
484.637
484.681
484.728
484.781
484.838
484.9
484.966
485.038
485.115
485.196
485.283
485.374
485.471
485.572
485.678
485.789
485.905
486.025
486.149
486.278
486.411
486.547
486.688
486.831
486.978
487.128
487.28
487.435
487.592
487.75
487.911
488.072
488.234
488.396
488.558
488.72
488.88
489.038
489.193
489.346
489.494
489.636
489.773
489.902
490.022
490.133
490.234
490.324
490.404
490.475
495.338
495.284
495.181
495.031
494.84
494.617
494.372
494.116
493.857
493.598
493.339
493.078
492.813
492.547
492.279
492.012
491.747
491.486
491.231
490.982
490.74
490.506
490.281
490.065
489.86
489.664
489.48
489.306
489.142
488.988
488.843
488.706
488.578
488.457
488.341
488.232
488.127
488.026
487.929
487.835
487.743
487.653
487.565
487.479
487.394
487.31
487.227
487.144
487.063
486.982
486.902
486.822
486.744
486.665
486.588
486.511
486.435
486.36
486.286
486.212
486.139
486.067
485.997
485.927
485.858
485.79
485.723
485.657
485.592
485.528
485.466
485.405
485.345
485.286
485.228
485.172
485.117
485.064
485.012
484.961
484.912
484.865
484.819
484.775
484.733
484.692
484.653
484.617
484.582
484.549
484.518
484.49
484.464
484.44
484.418
484.399
484.383
484.369
484.358
484.35
484.345
484.343
484.344
484.349
484.356
484.367
484.382
484.4
484.422
484.448
484.478
484.511
484.549
484.591
484.637
484.687
484.742
484.801
484.864
484.932
485.004
485.081
485.162
485.248
485.338
485.432
485.531
485.633
485.74
485.851
485.966
486.085
486.208
486.334
486.464
486.597
486.734
486.875
487.019
487.166
487.317
487.47
487.627
487.787
487.951
488.116
488.285
488.455
488.627
488.799
488.972
489.145
489.315
489.482
489.644
489.8
489.949
490.088
490.216
490.331
495.022
494.977
494.892
494.768
494.607
494.416
494.202
493.974
493.738
493.498
493.255
493.009
492.761
492.51
492.257
492.004
491.753
491.504
491.26
491.021
490.787
490.561
490.343
490.133
489.931
489.739
489.556
489.382
489.218
489.062
488.915
488.776
488.644
488.518
488.399
488.285
488.176
488.071
487.97
487.872
487.777
487.684
487.593
487.503
487.416
487.329
487.244
487.16
487.076
486.994
486.912
486.832
486.752
486.672
486.594
486.516
486.439
486.363
486.288
486.214
486.14
486.067
485.996
485.925
485.855
485.786
485.718
485.651
485.586
485.521
485.457
485.395
485.334
485.274
485.215
485.157
485.101
485.046
484.992
484.94
484.889
484.84
484.792
484.746
484.702
484.659
484.617
484.578
484.54
484.505
484.471
484.439
484.409
484.382
484.356
484.333
484.313
484.294
484.278
484.265
484.255
484.247
484.242
484.24
484.24
484.244
484.251
484.261
484.275
484.292
484.312
484.336
484.363
484.394
484.429
484.467
484.509
484.554
484.604
484.657
484.715
484.775
484.84
484.909
484.981
485.057
485.137
485.221
485.308
485.398
485.493
485.591
485.692
485.797
485.906
486.018
486.135
486.255
486.379
486.508
486.641
486.778
486.921
487.069
487.222
487.38
487.545
487.715
487.89
488.072
488.258
488.449
488.644
488.841
489.039
489.237
489.433
489.623
489.807
489.981
494.752
494.714
494.642
494.536
494.399
494.233
494.045
493.84
493.625
493.402
493.175
492.944
492.71
492.473
492.234
491.994
491.754
491.516
491.282
491.052
490.827
490.608
490.395
490.19
489.993
489.803
489.622
489.449
489.284
489.127
488.978
488.837
488.702
488.574
488.451
488.334
488.221
488.113
488.008
487.907
487.808
487.712
487.618
487.526
487.436
487.347
487.26
487.174
487.089
487.005
486.922
486.84
486.759
486.678
486.599
486.52
486.442
486.365
486.289
486.214
486.14
486.066
485.994
485.922
485.851
485.782
485.713
485.645
485.578
485.513
485.448
485.384
485.322
485.261
485.2
485.141
485.084
485.027
484.972
484.918
484.865
484.814
484.764
484.716
484.669
484.624
484.58
484.538
484.497
484.458
484.421
484.386
484.353
484.322
484.292
484.265
484.24
484.217
484.196
484.177
484.161
484.148
484.136
484.128
484.121
484.118
484.117
484.119
484.124
484.132
484.143
484.156
484.173
484.193
484.216
484.241
484.271
484.303
484.338
484.377
484.418
484.463
484.511
484.562
484.616
484.673
484.733
484.796
484.862
484.932
485.004
485.079
485.157
485.239
485.324
485.412
485.504
485.6
485.7
485.805
485.915
486.03
486.151
486.278
486.412
486.553
486.703
486.861
487.028
487.204
487.39
487.585
487.789
488.002
488.223
488.451
488.683
488.918
489.153
489.384
494.522
494.489
494.427
494.335
494.214
494.068
493.901
493.716
493.519
493.313
493.1
492.883
492.662
492.437
492.21
491.981
491.752
491.525
491.299
491.077
490.859
490.647
490.44
490.239
490.045
489.858
489.678
489.506
489.342
489.184
489.034
488.891
488.754
488.623
488.497
488.377
488.261
488.15
488.042
487.938
487.836
487.737
487.641
487.547
487.454
487.364
487.274
487.187
487.1
487.015
486.93
486.847
486.765
486.683
486.603
486.523
486.445
486.367
486.29
486.214
486.139
486.064
485.991
485.918
485.847
485.776
485.706
485.638
485.57
485.503
485.437
485.373
485.309
485.246
485.185
485.124
485.065
485.007
484.95
484.894
484.84
484.787
484.735
484.684
484.635
484.587
484.541
484.496
484.452
484.411
484.37
484.332
484.295
484.26
484.226
484.195
484.165
484.137
484.111
484.088
484.066
484.046
484.029
484.013
484
483.989
483.981
483.975
483.971
483.969
483.97
483.974
483.98
483.989
484
484.013
484.029
484.048
484.069
484.092
484.118
484.146
484.177
484.21
484.246
484.283
484.323
484.366
484.41
484.457
484.506
484.558
484.612
484.669
484.728
484.791
484.856
484.925
484.998
485.076
485.158
485.246
485.34
485.441
485.55
485.667
485.794
485.93
486.078
486.238
486.41
486.596
486.795
487.009
487.236
487.476
487.729
487.992
488.264
488.54
494.326
494.297
494.241
494.16
494.053
493.923
493.772
493.604
493.422
493.231
493.032
492.826
492.617
492.403
492.186
491.968
491.748
491.529
491.312
491.097
490.886
490.679
490.477
490.28
490.089
489.905
489.727
489.556
489.391
489.234
489.082
488.938
488.799
488.666
488.538
488.415
488.297
488.183
488.072
487.965
487.861
487.76
487.662
487.565
487.471
487.378
487.287
487.198
487.11
487.023
486.938
486.853
486.77
486.687
486.606
486.525
486.446
486.367
486.289
486.212
486.136
486.061
485.987
485.914
485.841
485.769
485.699
485.629
485.56
485.492
485.426
485.36
485.295
485.231
485.168
485.106
485.045
484.986
484.927
484.869
484.813
484.758
484.704
484.651
484.6
484.549
484.5
484.453
484.406
484.361
484.318
484.276
484.235
484.196
484.159
484.123
484.089
484.056
484.025
483.996
483.969
483.943
483.919
483.897
483.877
483.859
483.842
483.828
483.815
483.805
483.796
483.79
483.785
483.782
483.781
483.782
483.785
483.79
483.797
483.805
483.815
483.827
483.84
483.856
483.872
483.89
483.91
483.931
483.954
483.978
484.004
484.031
484.06
484.091
484.124
484.159
484.197
484.238
484.282
484.33
484.383
484.441
484.505
484.575
484.654
484.742
484.839
484.948
485.069
485.204
485.353
485.519
485.701
485.902
486.12
486.358
486.614
486.887
487.178
487.482
494.158
494.133
494.083
494.01
493.913
493.795
493.658
493.503
493.335
493.157
492.969
492.775
492.575
492.371
492.164
491.954
491.743
491.532
491.321
491.113
490.907
490.705
490.507
490.314
490.126
489.944
489.768
489.598
489.434
489.276
489.124
488.978
488.838
488.703
488.573
488.448
488.328
488.211
488.099
487.99
487.884
487.78
487.68
487.581
487.485
487.391
487.299
487.208
487.118
487.03
486.943
486.858
486.773
486.69
486.608
486.526
486.446
486.366
486.288
486.21
486.133
486.057
485.982
485.908
485.834
485.762
485.69
485.62
485.55
485.481
485.413
485.346
485.28
485.214
485.15
485.087
485.024
484.963
484.903
484.843
484.785
484.728
484.672
484.617
484.563
484.51
484.459
484.408
484.359
484.311
484.264
484.219
484.175
484.132
484.09
484.05
484.011
483.974
483.938
483.903
483.87
483.838
483.808
483.779
483.752
483.726
483.702
483.679
483.658
483.638
483.62
483.603
483.588
483.574
483.561
483.55
483.54
483.531
483.523
483.516
483.51
483.506
483.502
483.499
483.497
483.495
483.494
483.494
483.495
483.496
483.498
483.5
483.504
483.508
483.514
483.521
483.53
483.541
483.554
483.572
483.593
483.618
483.65
483.688
483.733
483.787
483.852
483.928
484.017
484.121
484.241
484.378
484.534
484.711
484.91
485.132
485.377
485.646
485.938
486.253
494.018
493.994
493.949
493.882
493.794
493.685
493.558
493.415
493.259
493.091
492.913
492.728
492.537
492.342
492.142
491.94
491.736
491.532
491.328
491.125
490.924
490.726
490.532
490.342
490.157
489.977
489.802
489.633
489.469
489.311
489.159
489.012
488.871
488.735
488.603
488.477
488.354
488.236
488.122
488.011
487.903
487.798
487.695
487.595
487.498
487.402
487.308
487.216
487.125
487.036
486.948
486.861
486.776
486.692
486.608
486.526
486.445
486.365
486.285
486.207
486.129
486.052
485.976
485.901
485.827
485.753
485.681
485.609
485.538
485.468
485.399
485.331
485.263
485.197
485.131
485.066
485.003
484.94
484.878
484.817
484.756
484.697
484.639
484.582
484.525
484.47
484.416
484.363
484.31
484.259
484.209
484.16
484.112
484.066
484.02
483.975
483.932
483.89
483.849
483.809
483.77
483.732
483.696
483.66
483.626
483.593
483.561
483.53
483.5
483.471
483.443
483.416
483.39
483.364
483.34
483.316
483.293
483.27
483.248
483.226
483.204
483.183
483.162
483.141
483.12
483.098
483.077
483.055
483.033
483.011
482.989
482.966
482.943
482.921
482.898
482.876
482.855
482.836
482.818
482.803
482.79
482.782
482.779
482.781
482.791
482.809
482.838
482.877
482.93
482.998
483.083
483.186
483.31
483.457
483.627
483.824
484.048
484.3
484.581
484.891
493.901
493.879
493.837
493.775
493.693
493.592
493.474
493.34
493.193
493.033
492.865
492.688
492.504
492.316
492.123
491.928
491.73
491.531
491.332
491.134
490.937
490.743
490.553
490.365
490.182
490.004
489.83
489.662
489.499
489.341
489.188
489.041
488.899
488.761
488.629
488.501
488.377
488.257
488.141
488.028
487.919
487.812
487.708
487.607
487.508
487.411
487.315
487.222
487.13
487.04
486.951
486.864
486.777
486.692
486.608
486.525
486.443
486.362
486.282
486.202
486.124
486.046
485.969
485.893
485.818
485.744
485.67
485.598
485.526
485.455
485.385
485.315
485.246
485.179
485.111
485.045
484.98
484.915
484.852
484.789
484.727
484.665
484.605
484.545
484.487
484.429
484.372
484.316
484.261
484.207
484.153
484.101
484.049
483.999
483.949
483.9
483.852
483.805
483.759
483.713
483.669
483.625
483.582
483.54
483.499
483.458
483.418
483.379
483.34
483.302
483.265
483.227
483.191
483.154
483.118
483.081
483.045
483.009
482.972
482.935
482.898
482.86
482.821
482.782
482.742
482.701
482.658
482.615
482.57
482.524
482.477
482.429
482.38
482.329
482.278
482.227
482.175
482.124
482.073
482.024
481.977
481.932
481.892
481.858
481.829
481.809
481.798
481.798
481.811
481.84
481.885
481.95
482.036
482.146
482.283
482.447
482.642
482.869
483.129
483.423
493.806
493.786
493.746
493.688
493.611
493.516
493.405
493.278
493.137
492.985
492.824
492.653
492.476
492.294
492.107
491.916
491.723
491.529
491.335
491.14
490.947
490.757
490.568
490.384
490.202
490.025
489.853
489.685
489.522
489.365
489.212
489.064
488.921
488.783
488.649
488.52
488.395
488.274
488.156
488.042
487.931
487.823
487.718
487.616
487.515
487.417
487.321
487.227
487.134
487.043
486.953
486.865
486.777
486.691
486.606
486.523
486.44
486.358
486.277
486.197
486.118
486.039
485.962
485.885
485.809
485.734
485.659
485.586
485.513
485.44
485.369
485.298
485.229
485.159
485.091
485.023
484.956
484.89
484.825
484.76
484.696
484.633
484.57
484.508
484.447
484.387
484.327
484.269
484.21
484.153
484.096
484.04
483.985
483.931
483.877
483.824
483.771
483.719
483.668
483.617
483.567
483.517
483.468
483.419
483.371
483.323
483.275
483.228
483.18
483.133
483.086
483.039
482.991
482.943
482.895
482.846
482.797
482.747
482.696
482.644
482.591
482.536
482.48
482.423
482.363
482.302
482.239
482.174
482.106
482.037
481.965
481.89
481.814
481.735
481.655
481.573
481.489
481.405
481.32
481.236
481.152
481.07
480.992
480.917
480.848
480.786
480.733
480.69
480.66
480.646
480.648
480.67
480.714
480.783
480.88
481.007
481.166
481.361
481.593
481.864
493.731
493.712
493.675
493.619
493.546
493.456
493.349
493.228
493.093
492.947
492.79
492.625
492.453
492.275
492.093
491.907
491.718
491.527
491.336
491.145
490.955
490.766
490.58
490.397
490.218
490.042
489.87
489.703
489.541
489.383
489.23
489.082
488.938
488.799
488.665
488.535
488.409
488.286
488.168
488.053
487.941
487.832
487.726
487.622
487.521
487.422
487.325
487.229
487.136
487.044
486.953
486.864
486.776
486.689
486.604
486.519
486.436
486.353
486.271
486.191
486.111
486.031
485.953
485.875
485.799
485.723
485.647
485.573
485.499
485.425
485.353
485.281
485.21
485.139
485.07
485
484.932
484.864
484.797
484.73
484.664
484.599
484.534
484.47
484.407
484.344
484.282
484.22
484.159
484.099
484.039
483.979
483.921
483.862
483.804
483.747
483.689
483.633
483.576
483.52
483.464
483.409
483.353
483.298
483.243
483.187
483.132
483.076
483.02
482.964
482.907
482.85
482.792
482.733
482.673
482.612
482.549
482.486
482.42
482.353
482.284
482.213
482.14
482.064
481.986
481.904
481.82
481.733
481.642
481.548
481.451
481.35
481.246
481.139
481.028
480.915
480.799
480.68
480.56
480.439
480.317
480.196
480.076
479.96
479.848
479.741
479.643
479.554
479.478
479.415
479.371
479.345
479.343
479.367
479.419
479.503
479.622
479.779
479.977
480.217
493.676
493.658
493.622
493.568
493.498
493.411
493.308
493.19
493.06
492.917
492.765
492.604
492.436
492.261
492.082
491.899
491.713
491.525
491.337
491.148
490.96
490.773
490.589
490.407
490.229
490.054
489.883
489.716
489.554
489.396
489.243
489.094
488.95
488.811
488.676
488.545
488.418
488.295
488.176
488.06
487.947
487.837
487.73
487.626
487.524
487.424
487.326
487.23
487.136
487.043
486.952
486.862
486.773
486.686
486.6
486.515
486.43
486.347
486.265
486.183
486.103
486.023
485.944
485.865
485.787
485.711
485.634
485.559
485.484
485.409
485.336
485.263
485.19
485.119
485.047
484.977
484.907
484.837
484.768
484.7
484.632
484.565
484.498
484.432
484.366
484.301
484.236
484.172
484.108
484.044
483.981
483.918
483.855
483.793
483.731
483.669
483.607
483.546
483.484
483.423
483.362
483.3
483.238
483.176
483.114
483.051
482.988
482.924
482.86
482.795
482.728
482.661
482.592
482.522
482.451
482.378
482.302
482.225
482.146
482.064
481.979
481.891
481.8
481.706
481.609
481.507
481.402
481.292
481.179
481.06
480.938
480.81
480.678
480.541
480.4
480.254
480.104
479.951
479.794
479.634
479.472
479.31
479.147
478.986
478.828
478.674
478.527
478.389
478.262
478.148
478.052
477.975
477.921
477.894
477.896
477.933
478.006
478.12
478.278
478.483
493.64
493.622
493.587
493.535
493.466
493.381
493.28
493.165
493.037
492.898
492.748
492.59
492.424
492.252
492.075
491.894
491.71
491.524
491.337
491.149
490.963
490.777
490.594
490.413
490.235
490.061
489.89
489.724
489.562
489.404
489.251
489.102
488.958
488.818
488.683
488.551
488.424
488.3
488.18
488.064
487.95
487.84
487.732
487.627
487.525
487.424
487.326
487.229
487.134
487.041
486.949
486.859
486.77
486.682
486.595
486.509
486.424
486.34
486.257
486.175
486.094
486.013
485.933
485.854
485.776
485.698
485.621
485.544
485.468
485.393
485.318
485.244
485.17
485.097
485.025
484.953
484.881
484.81
484.739
484.669
484.6
484.53
484.461
484.393
484.325
484.257
484.19
484.122
484.055
483.989
483.922
483.856
483.79
483.724
483.657
483.591
483.525
483.459
483.393
483.326
483.259
483.191
483.123
483.055
482.986
482.916
482.845
482.773
482.7
482.626
482.551
482.473
482.394
482.313
482.23
482.145
482.057
481.966
481.872
481.775
481.675
481.571
481.463
481.351
481.234
481.112
480.986
480.854
480.717
480.574
480.425
480.271
480.11
479.943
479.77
479.591
479.407
479.217
479.022
478.822
478.619
478.413
478.205
477.996
477.789
477.585
477.385
477.193
477.011
476.842
476.689
476.555
476.445
476.361
476.309
476.292
476.314
476.379
476.492
476.656
493.621
493.604
493.569
493.518
493.45
493.366
493.266
493.152
493.026
492.888
492.739
492.582
492.417
492.247
492.071
491.89
491.707
491.522
491.336
491.15
490.964
490.779
490.596
490.416
490.238
490.064
489.894
489.727
489.565
489.407
489.254
489.105
488.961
488.821
488.685
488.553
488.425
488.301
488.181
488.064
487.95
487.84
487.732
487.626
487.523
487.422
487.323
487.226
487.131
487.037
486.945
486.854
486.764
486.676
486.588
486.502
486.417
486.332
486.249
486.166
486.084
486.003
485.922
485.842
485.763
485.684
485.606
485.529
485.452
485.375
485.3
485.224
485.149
485.075
485.001
484.928
484.855
484.782
484.71
484.638
484.566
484.495
484.424
484.353
484.283
484.213
484.143
484.073
484.003
483.933
483.863
483.794
483.724
483.654
483.584
483.514
483.443
483.372
483.301
483.229
483.156
483.083
483.009
482.934
482.858
482.781
482.703
482.623
482.542
482.459
482.374
482.287
482.197
482.106
482.011
481.914
481.813
481.709
481.601
481.49
481.374
481.253
481.128
480.997
480.862
480.72
480.572
480.418
480.257
480.09
479.915
479.733
479.543
479.346
479.141
478.928
478.708
478.48
478.246
478.005
477.758
477.506
477.25
476.992
476.732
476.474
476.218
475.968
475.727
475.496
475.281
475.085
474.912
474.766
474.652
474.574
474.538
474.549
474.61
474.727
493.621
493.603
493.569
493.517
493.449
493.365
493.266
493.152
493.025
492.887
492.739
492.582
492.417
492.246
492.07
491.89
491.707
491.522
491.335
491.149
490.963
490.778
490.595
490.414
490.237
490.063
489.892
489.726
489.564
489.406
489.252
489.103
488.959
488.819
488.683
488.551
488.423
488.299
488.178
488.061
487.947
487.836
487.728
487.622
487.519
487.418
487.318
487.221
487.126
487.032
486.939
486.848
486.758
486.669
486.581
486.494
486.408
486.323
486.239
486.156
486.073
485.991
485.91
485.829
485.749
485.67
485.591
485.513
485.435
485.358
485.281
485.204
485.128
485.053
484.977
484.902
484.828
484.754
484.68
484.606
484.533
484.459
484.386
484.314
484.241
484.168
484.095
484.023
483.95
483.877
483.805
483.731
483.658
483.584
483.51
483.436
483.361
483.285
483.209
483.132
483.054
482.975
482.895
482.814
482.731
482.647
482.561
482.474
482.384
482.293
482.198
482.102
482.002
481.9
481.794
481.685
481.572
481.455
481.333
481.207
481.075
480.939
480.796
480.648
480.493
480.331
480.162
479.986
479.801
479.609
479.408
479.198
478.979
478.751
478.513
478.266
478.009
477.742
477.467
477.183
476.89
476.591
476.284
475.973
475.658
475.342
475.026
474.713
474.407
474.11
473.827
473.561
473.318
473.103
472.919
472.774
472.673
472.621
472.624
472.687
493.638
493.62
493.585
493.533
493.464
493.379
493.279
493.164
493.036
492.896
492.746
492.588
492.422
492.25
492.073
491.891
491.707
491.521
491.334
491.147
490.96
490.774
490.591
490.41
490.232
490.057
489.886
489.72
489.557
489.399
489.246
489.097
488.952
488.812
488.676
488.544
488.416
488.292
488.172
488.055
487.941
487.83
487.722
487.616
487.512
487.411
487.312
487.214
487.119
487.024
486.932
486.84
486.75
486.661
486.572
486.485
486.399
486.314
486.229
486.145
486.062
485.979
485.897
485.816
485.735
485.655
485.575
485.496
485.417
485.339
485.261
485.183
485.106
485.029
484.953
484.877
484.801
484.725
484.649
484.574
484.499
484.424
484.349
484.273
484.198
484.123
484.048
483.973
483.897
483.822
483.746
483.669
483.592
483.515
483.437
483.359
483.279
483.199
483.118
483.036
482.953
482.868
482.782
482.695
482.606
482.515
482.421
482.326
482.229
482.128
482.025
481.919
481.81
481.697
481.58
481.459
481.333
481.203
481.068
480.927
480.781
480.628
480.469
480.302
480.128
479.947
479.757
479.558
479.35
479.133
478.905
478.667
478.419
478.159
477.888
477.605
477.311
477.005
476.687
476.358
476.019
475.669
475.309
474.942
474.568
474.19
473.809
473.428
473.051
472.682
472.324
471.982
471.661
471.368
471.107
470.886
470.711
470.588
470.524
470.525
493.674
493.655
493.62
493.566
493.496
493.408
493.305
493.188
493.057
492.915
492.762
492.601
492.433
492.258
492.079
491.895
491.709
491.521
491.332
491.143
490.955
490.768
490.584
490.402
490.223
490.047
489.876
489.709
489.546
489.388
489.234
489.085
488.941
488.801
488.665
488.533
488.406
488.282
488.162
488.045
487.931
487.821
487.713
487.607
487.504
487.402
487.303
487.206
487.11
487.016
486.923
486.831
486.741
486.651
486.563
486.475
486.389
486.303
486.218
486.133
486.05
485.966
485.884
485.802
485.721
485.64
485.559
485.479
485.399
485.32
485.241
485.162
485.084
485.006
484.928
484.85
484.773
484.696
484.619
484.542
484.464
484.387
484.31
484.233
484.156
484.079
484.001
483.923
483.845
483.766
483.687
483.607
483.527
483.446
483.364
483.282
483.198
483.114
483.028
482.941
482.852
482.762
482.67
482.577
482.481
482.383
482.283
482.18
482.075
481.966
481.854
481.739
481.62
481.496
481.368
481.236
481.099
480.956
480.807
480.652
480.49
480.322
480.146
479.962
479.769
479.568
479.357
479.136
478.905
478.662
478.408
478.143
477.864
477.573
477.268
476.949
476.617
476.27
475.909
475.534
475.145
474.742
474.327
473.901
473.464
473.019
472.569
472.115
471.661
471.212
470.771
470.345
469.938
469.557
469.209
468.902
468.642
468.438
468.298
468.228
493.728
493.709
493.672
493.616
493.543
493.452
493.346
493.224