/*--------------------------------*- C++ -*----------------------------------*\
| =========                 |                                                 |
| \\      /  F ield         | OpenFOAM: The Open Source CFD Toolbox           |
|  \\    /   O peration     | Version:  2306                                  |
|   \\  /    A nd           | Website:  www.openfoam.com                      |
|    \\/     M anipulation  |                                                 |
\*---------------------------------------------------------------------------*/
FoamFile
{
    version     2.0;
    format      ascii;
    arch        "LSB;label=32;scalar=64";
    class       surfaceScalarField;
    location    "0.275";
    object      phi;
}
// * * * * * * * * * * * * * * * * * * * * * * * * * * * * * * * * * * * * * //

dimensions      [0 3 -1 0 0 0 0];

oriented        oriented;

internalField   nonuniform List<scalar> 
34640
(
0.0049244
7.55987e-05
0.00478599
0.000138414
0.00463052
0.000155467
0.00447385
0.000156669
0.00431583
0.000158023
0.00415467
0.000161162
0.00399075
0.00016392
0.00382542
0.00016533
0.00366031
0.000165105
0.00349681
0.000163498
0.00333583
0.000160982
0.00317796
0.000157867
0.00302375
0.000154218
0.00287375
0.000149992
0.00272862
0.000145136
0.00258899
0.000139632
0.00245554
0.000133442
0.00232889
0.00012665
0.0022094
0.000119491
0.00209747
0.000111939
0.00199339
0.000104075
0.00189738
9.60097e-05
0.00180951
8.78653e-05
0.00172974
7.97709e-05
0.00165789
7.18538e-05
0.00159366
6.42333e-05
0.00153664
5.70136e-05
0.00148636
5.02797e-05
0.00144227
4.4094e-05
0.00140377
3.84961e-05
0.00137027
3.35024e-05
0.00134116
2.91103e-05
0.00131586
2.5299e-05
0.00129383
2.20361e-05
0.00127455
1.92787e-05
0.00125757
1.69788e-05
0.00124249
1.50813e-05
0.00122896
1.35226e-05
0.00121671
1.22527e-05
0.00120548
1.12314e-05
0.00119506
1.04218e-05
0.00118527
9.78857e-06
0.00117597
9.29903e-06
0.00116705
8.92416e-06
0.00115841
8.63915e-06
0.00114998
8.42342e-06
0.00114172
8.26012e-06
0.00113359
8.1357e-06
0.00112555
8.0393e-06
0.00111759
7.96242e-06
0.00110969
7.89847e-06
0.00110185
7.84251e-06
0.00109405
7.79095e-06
0.00108631
7.74127e-06
0.00107862
7.69184e-06
0.00107098
7.6417e-06
0.00106339
7.59042e-06
0.00105585
7.53794e-06
0.00104837
7.4845e-06
0.00104094
7.43052e-06
0.00103356
7.37658e-06
0.00102624
7.32331e-06
0.00101897
7.27142e-06
0.00101174
7.2216e-06
0.00100457
7.17457e-06
0.000997438
7.13101e-06
0.000990346
7.09158e-06
0.000983289
7.05692e-06
0.000976262
7.0276e-06
0.000969258
7.00416e-06
0.000962271
6.98712e-06
0.000955294
6.97692e-06
0.00094832
6.97397e-06
0.000941341
6.9787e-06
0.000934349
6.99152e-06
0.000927337
7.01286e-06
0.000920294
7.0431e-06
0.000913211
7.08261e-06
0.000906079
7.13177e-06
0.000898888
7.19093e-06
0.000891628
7.26046e-06
0.000884287
7.34072e-06
0.000876855
7.43207e-06
0.00086932
7.53488e-06
0.000861671
7.64954e-06
0.000853894
7.77643e-06
0.000845978
7.91594e-06
0.00083791
8.06846e-06
0.000829675
8.2344e-06
0.000821261
8.41416e-06
0.000812653
8.60815e-06
0.000803836
8.81678e-06
0.000794796
9.04044e-06
0.000785516
9.27952e-06
0.000775982
9.5344e-06
0.000766176
9.80542e-06
0.000756084
1.00929e-05
0.000745686
1.03972e-05
0.000734968
1.07184e-05
0.000723911
1.10568e-05
0.000712499
1.14124e-05
0.000700714
1.17852e-05
0.000688539
1.2175e-05
0.000675957
1.25817e-05
0.000662952
1.30048e-05
0.000649508
1.34438e-05
0.00063561
1.38982e-05
0.000621243
1.43667e-05
0.000606395
1.48481e-05
0.000591054
1.53409e-05
0.000575211
1.58431e-05
0.000558859
1.63526e-05
0.000541992
1.68667e-05
0.00052461
1.73822e-05
0.000506714
1.78955e-05
0.000488312
1.84024e-05
0.000469414
1.88982e-05
0.000450036
1.93777e-05
0.000430201
1.98352e-05
0.000409937
2.02643e-05
0.000389278
2.06583e-05
0.000368268
2.10101e-05
0.000346956
2.13121e-05
0.000325399
2.15568e-05
0.000303663
2.17366e-05
0.000281818
2.18444e-05
0.000259945
2.18733e-05
0.000238127
2.18177e-05
0.000216454
2.16728e-05
0.000195019
2.14354e-05
0.000173915
2.11036e-05
0.000153238
2.06771e-05
0.000133081
2.01567e-05
0.000113537
1.95442e-05
9.46957e-05
1.88415e-05
7.66461e-05
1.80496e-05
5.94777e-05
1.71684e-05
4.32805e-05
1.61972e-05
2.81429e-05
1.51376e-05
1.41458e-05
1.39971e-05
1.35255e-06
1.27933e-05
-1.02116e-05
1.15641e-05
-2.05553e-05
1.03437e-05
-2.97327e-05
9.17743e-06
-3.78267e-05
8.094e-06
-4.4915e-05
7.08822e-06
-5.10377e-05
6.12275e-06
-5.61921e-05
5.15441e-06
-6.03491e-05
4.15703e-06
-6.35186e-05
3.16946e-06
-6.58052e-05
2.28669e-06
-6.73907e-05
1.58546e-06
-6.84427e-05
1.05206e-06
-6.9026e-05
5.83248e-07
-6.91528e-05
1.26778e-07
-6.88643e-05
-2.8849e-07
-6.82048e-05
-6.59424e-07
-6.7049e-05
-1.15582e-06
-6.51262e-05
-1.92281e-06
-2.86322e-06
-6.2263e-05
0.00503752
3.80748e-05
0.0050774
9.85348e-05
0.00509715
0.00013572
0.00510102
0.000152795
0.00509795
0.000161096
0.00509063
0.000168478
0.0050778
0.000176757
0.00505833
0.000184798
0.00503218
0.00019126
0.005
0.000195672
0.00496268
0.000198302
0.00492096
0.000199591
0.00487537
0.000199809
0.00482632
0.000199042
0.00477418
0.000197273
0.00471935
0.000194459
0.0046622
0.000190594
0.00460311
0.000185743
0.00454259
0.000180009
0.00448106
0.000173464
0.00441894
0.0001662
0.00435661
0.000158338
0.00429445
0.00015002
0.00423282
0.000141403
0.00417203
0.000132646
0.00411236
0.000123905
0.00405405
0.000115323
0.0039973
0.000107028
0.00394227
9.9127e-05
0.00388906
9.17013e-05
0.00383776
8.48071e-05
0.00378839
7.84789e-05
0.00374096
7.27272e-05
0.00369545
6.75472e-05
0.00365181
6.29166e-05
0.00360998
5.88147e-05
0.00356981
5.52471e-05
0.00353128
5.20525e-05
0.00349431
4.92239e-05
0.0034588
4.67371e-05
0.00342467
4.45543e-05
0.00339182
4.26378e-05
0.00336017
4.09516e-05
0.00332963
3.94629e-05
0.00330013
3.81422e-05
0.00327159
3.69637e-05
0.00324394
3.59052e-05
0.00321713
3.49479e-05
0.00319109
3.40758e-05
0.00316578
3.32755e-05
0.00314114
3.25359e-05
0.00311714
3.18479e-05
0.00309372
3.12043e-05
0.00307087
3.05993e-05
0.00304853
3.00283e-05
0.00302668
2.94878e-05
0.0030053
2.89752e-05
0.00298435
2.84885e-05
0.00296381
2.80264e-05
0.00294365
2.75878e-05
0.00292385
2.71723e-05
0.0029044
2.67794e-05
0.00288526
2.6409e-05
0.00286642
2.60613e-05
0.00284786
2.57363e-05
0.00282956
2.54344e-05
0.00281149
2.51559e-05
0.00279365
2.49012e-05
0.002776
2.46708e-05
0.00275854
2.44653e-05
0.00274124
2.4285e-05
0.00272409
2.41303e-05
0.00270706
2.40018e-05
0.00269014
2.39001e-05
0.00267331
2.38258e-05
0.00265654
2.37797e-05
0.00263982
2.37624e-05
0.00262313
2.37748e-05
0.00260644
2.38175e-05
0.00258974
2.38915e-05
0.00257301
2.39976e-05
0.00255621
2.41367e-05
0.00253933
2.43099e-05
0.00252235
2.45182e-05
0.00250524
2.47628e-05
0.00248797
2.50447e-05
0.00247052
2.53652e-05
0.00245286
2.57257e-05
0.00243497
2.61274e-05
0.00241681
2.6572e-05
0.00239836
2.70607e-05
0.00237958
2.75953e-05
0.00236044
2.81773e-05
0.00234091
2.88084e-05
0.00232096
2.94904e-05
0.00230054
3.02249e-05
0.00227962
3.10137e-05
0.00225816
3.18587e-05
0.00223611
3.27617e-05
0.00221344
3.37243e-05
0.00219011
3.47484e-05
0.00216606
3.58355e-05
0.00214125
3.69871e-05
0.00211562
3.82045e-05
0.00208914
3.9488e-05
0.00206174
4.084e-05
0.00203338
4.22611e-05
0.002004
4.37513e-05
0.00197353
4.53104e-05
0.00194194
4.69379e-05
0.00190915
4.86329e-05
0.00187511
5.03937e-05
0.00183976
5.22176e-05
0.00180304
5.41007e-05
0.00176489
5.60384e-05
0.00172527
5.80246e-05
0.00168412
6.0052e-05
0.00164138
6.21116e-05
0.00159703
6.41927e-05
0.00155101
6.62827e-05
0.0015033
6.83669e-05
0.00145388
7.04283e-05
0.00140275
7.24474e-05
0.0013499
7.44021e-05
0.00129537
7.62677e-05
0.0012392
7.80165e-05
0.00118145
7.9618e-05
0.00112223
8.1039e-05
0.00106166
8.22433e-05
0.000999904
8.31925e-05
0.000937161
8.38465e-05
0.000873674
8.41638e-05
0.000809728
8.41033e-05
0.000745647
8.36255e-05
0.000681793
8.26947e-05
0.000618561
8.12815e-05
0.000556364
7.93659e-05
0.00049562
7.69413e-05
0.000436738
7.40198e-05
0.000380099
7.06357e-05
0.000326045
6.68475e-05
0.000274871
6.27381e-05
0.000226812
5.84022e-05
0.000182055
5.39349e-05
0.000140736
4.94129e-05
0.000102939
4.48851e-05
6.86613e-05
4.04004e-05
3.7944e-05
3.58718e-05
1.08415e-05
3.12595e-05
-1.27804e-05
2.67914e-05
-3.31594e-05
2.26657e-05
-5.06834e-05
1.91094e-05
-6.55659e-05
1.59346e-05
-7.79329e-05
1.29503e-05
-8.7928e-05
1.01219e-05
-9.57754e-05
7.55889e-06
-0.000101699
5.26403e-06
-0.000105728
2.8734e-06
-0.000107735
8.4227e-08
-2.89434e-06
-0.000107704
0.00501445
2.36272e-05
0.00504447
6.85094e-05
0.00507418
0.000106011
0.00509859
0.000128388
0.00511781
0.000141877
0.00513503
0.000151254
0.00515196
0.000159828
0.00516818
0.000168575
0.00518272
0.000176724
0.00519492
0.000183472
0.00520465
0.000188572
0.00521208
0.000192158
0.0052174
0.000194495
0.00522066
0.000195784
0.00522183
0.000196102
0.00522084
0.000195444
0.00521764
0.000193794
0.00521223
0.000191159
0.00520467
0.000187567
0.00519503
0.000183107
0.00518337
0.000177854
0.00516981
0.000171904
0.00515445
0.000165376
0.00513745
0.000158404
0.00511897
0.000151128
0.00509918
0.000143693
0.00507827
0.000136234
0.00505642
0.000128878
0.00503381
0.000121737
0.00501061
0.000114902
0.00498697
0.000108443
0.00496304
0.000102411
0.00493893
9.68359e-05
0.00491475
9.17316e-05
0.00489056
8.70973e-05
0.00486646
8.29226e-05
0.00484252
7.91806e-05
0.00481876
7.58164e-05
0.00479519
7.2796e-05
0.00477183
7.00944e-05
0.0047487
6.76846e-05
0.0047258
6.5536e-05
0.00470314
6.36174e-05
0.0046807
6.18992e-05
0.00465849
6.03538e-05
0.00463649
5.89569e-05
0.00461471
5.76871e-05
0.00459314
5.65257e-05
0.00457175
5.54569e-05
0.00455056
5.44672e-05
0.00452955
5.35453e-05
0.00450872
5.26817e-05
0.00448805
5.1869e-05
0.00446755
5.11008e-05
0.00444721
5.03725e-05
0.00442702
4.96802e-05
0.00440697
4.90212e-05
0.00438707
4.83935e-05
0.0043673
4.77955e-05
0.00434766
4.72265e-05
0.00432814
4.6686e-05
0.00430875
4.61738e-05
0.00428947
4.569e-05
0.00427029
4.52352e-05
0.00425122
4.48097e-05
0.00423224
4.44143e-05
0.00421335
4.40499e-05
0.00419453
4.37172e-05
0.00417578
4.34174e-05
0.0041571
4.31516e-05
0.00413846
4.2921e-05
0.00411987
4.27261e-05
0.0041013
4.25683e-05
0.00408275
4.24489e-05
0.00406421
4.23693e-05
0.00404566
4.23309e-05
0.00402708
4.23352e-05
0.00400847
4.23838e-05
0.00398981
4.24784e-05
0.00397108
4.26206e-05
0.00395227
4.28123e-05
0.00393335
4.30554e-05
0.00391431
4.3352e-05
0.00389512
4.3704e-05
0.00387577
4.41139e-05
0.00385623
4.45839e-05
0.00383648
4.51166e-05
0.00381649
4.57146e-05
0.00379624
4.63806e-05
0.00377569
4.71175e-05
0.00375483
4.79284e-05
0.00373361
4.88166e-05
0.003712
4.97852e-05
0.00368997
5.08379e-05
0.00366748
5.19783e-05
0.00364449
5.32101e-05
0.00362097
5.45372e-05
0.00359687
5.59638e-05
0.00357213
5.74939e-05
0.00354673
5.91319e-05
0.00352059
6.08819e-05
0.00349368
6.27485e-05
0.00346593
6.47359e-05
0.00343729
6.68484e-05
0.00340769
6.90901e-05
0.00337706
7.14658e-05
0.00334534
7.39798e-05
0.00331246
7.66357e-05
0.00327833
7.94367e-05
0.00324288
8.23854e-05
0.00320603
8.54858e-05
0.00316768
8.87396e-05
0.00312775
9.21478e-05
0.00308614
9.57104e-05
0.00304276
9.94263e-05
0.00299749
0.000103293
0.00295023
0.000107307
0.00290088
0.000111461
0.00284933
0.000115748
0.00279545
0.000120157
0.00273915
0.000124674
0.00268029
0.000129282
0.00261878
0.00013396
0.0025545
0.000138683
0.00248735
0.000143422
0.00241722
0.000148141
0.00234404
0.000152801
0.00226772
0.000157354
0.00218822
0.000161745
0.0021055
0.000165915
0.00201955
0.000169794
0.00193041
0.000173304
0.00183815
0.000176362
0.0017429
0.000178878
0.00164483
0.00018076
0.00154421
0.000181905
0.00144136
0.00018221
0.00133673
0.000181572
0.00123086
0.000179893
0.00112441
0.000177088
0.00101817
0.000173088
0.000913054
0.000167851
0.000810089
0.000161367
0.000710356
0.000153668
0.000614932
0.000144838
0.000524798
0.000135018
0.000440796
0.000124403
0.00036341
0.000113258
0.000292744
0.000101925
0.000228753
9.07823e-05
0.000171286
8.01327e-05
0.000120244
7.01512e-05
7.52798e-05
6.08992e-05
3.63635e-05
5.18666e-05
3.05832e-06
4.34271e-05
-2.51559e-05
3.57732e-05
-4.89788e-05
2.90869e-05
-6.87277e-05
2.26224e-05
-8.45223e-05
1.58788e-05
9.1936e-06
-9.66102e-05
0.00500634
1.72884e-05
0.00502385
5.09992e-05
0.00504705
8.28145e-05
0.00506939
0.000106043
0.00508908
0.000122187
0.00510686
0.000133478
0.00512443
0.000142249
0.00514265
0.000150363
0.00516108
0.000158285
0.00517925
0.000165303
0.00519682
0.000171003
0.00521368
0.000175302
0.00522985
0.000178325
0.00524536
0.00018027
0.00526017
0.000181294
0.00527418
0.000181439
0.00528726
0.000180714
0.00529929
0.000179121
0.00531018
0.000176682
0.00531983
0.000173451
0.00532819
0.000169499
0.00533519
0.000164905
0.0053408
0.000159764
0.00534502
0.000154185
0.00534787
0.000148282
0.00534938
0.000142174
0.00534964
0.000135976
0.00534872
0.000129797
0.00534672
0.000123736
0.00534375
0.000117877
0.0053399
0.000112289
0.00533529
0.000107021
0.00533002
0.000102111
0.00532417
9.75787e-05
0.00531784
9.34303e-05
0.0053111
8.96589e-05
0.00530403
8.62478e-05
0.00529667
8.31754e-05
0.00528906
8.04144e-05
0.00528121
7.79393e-05
0.00527317
7.57264e-05
0.00526495
7.37516e-05
0.00525658
7.19898e-05
0.00524806
7.04161e-05
0.00523941
6.90068e-05
0.00523063
6.77401e-05
0.00522172
6.65965e-05
0.00521269
6.5559e-05
0.00520353
6.46127e-05
0.00519425
6.37449e-05
0.00518485
6.29446e-05
0.00517533
6.22027e-05
0.00516569
6.15118e-05
0.00515592
6.08658e-05
0.00514604
6.02596e-05
0.00513603
5.96894e-05
0.0051259
5.91524e-05
0.00511564
5.86465e-05
0.00510527
5.81701e-05
0.00509477
5.77224e-05
0.00508416
5.7303e-05
0.00507342
5.69119e-05
0.00506256
5.65493e-05
0.00505158
5.62159e-05
0.00504048
5.59124e-05
0.00502925
5.56398e-05
0.0050179
5.53993e-05
0.00500643
5.51922e-05
0.00499482
5.502e-05
0.00498309
5.48842e-05
0.00497122
5.47866e-05
0.00495922
5.47284e-05
0.00494708
5.47114e-05
0.00493479
5.47375e-05
0.00492235
5.4809e-05
0.00490975
5.49278e-05
0.00489699
5.50962e-05
0.00488406
5.53166e-05
0.00487095
5.55914e-05
0.00485764
5.59232e-05
0.00484414
5.63148e-05
0.00483043
5.67689e-05
0.00481649
5.72887e-05
0.00480232
5.78773e-05
0.00478789
5.8538e-05
0.0047732
5.92744e-05
0.00475823
6.00902e-05
0.00474296
6.09894e-05
0.00472736
6.1976e-05
0.00471142
6.30545e-05
0.00469512
6.42294e-05
0.00467843
6.55055e-05
0.00466133
6.6888e-05
0.00464379
6.8382e-05
0.00462577
6.99933e-05
0.00460725
7.17275e-05
0.0045882
7.35909e-05
0.00456857
7.55898e-05
0.00454834
7.77308e-05
0.00452745
8.00207e-05
0.00450586
8.24667e-05
0.00448354
8.5076e-05
0.00446042
8.78562e-05
0.00443645
9.0815e-05
0.00441158
9.39602e-05
0.00438575
9.73e-05
0.00435888
0.000100843
0.00433092
0.000104596
0.00430179
0.000108568
0.00427141
0.000112767
0.0042397
0.0001172
0.00420656
0.000121875
0.00417191
0.000126799
0.00413564
0.000131977
0.00409765
0.000137415
0.00405783
0.000143117
0.00401605
0.000149085
0.00397219
0.000155321
0.00392612
0.000161823
0.00387769
0.000168588
0.00382675
0.000175611
0.00377315
0.00018288
0.00371673
0.000190383
0.00365731
0.000198103
0.00359471
0.000206015
0.00352876
0.000214092
0.00345927
0.000222298
0.00338603
0.000230589
0.00330886
0.000238915
0.00322756
0.000247213
0.00314194
0.000255413
0.00305182
0.00026343
0.00295702
0.00027116
0.00285739
0.000278505
0.0027528
0.00028535
0.00264315
0.000291558
0.00252838
0.000296981
0.00240849
0.000301463
0.00228355
0.000304832
0.00215373
0.000306913
0.0020193
0.00030752
0.00188067
0.000306472
0.00173844
0.000303598
0.00159338
0.000298733
0.0014465
0.000291717
0.0012991
0.000282418
0.00115275
0.000270757
0.00100927
0.000256734
0.000870731
0.000240463
0.0007393
0.000222213
0.000617022
0.000202411
0.000505545
0.000181628
0.000405931
0.000160513
0.000317951
0.000139847
0.000240942
0.000120436
0.000173863
0.000102851
0.000115646
8.73041e-05
6.56998e-05
7.25687e-05
2.31917e-05
5.83868e-05
4.48816e-05
-1.24963e-05
0.00500365
1.36378e-05
0.00501435
4.03031e-05
0.00503119
6.5976e-05
0.00504934
8.78852e-05
0.00506702
0.00010451
0.00508362
0.000116874
0.00509961
0.000126268
0.00511581
0.000134164
0.00513256
0.000141532
0.00514965
0.000148213
0.00516675
0.000153905
0.00518365
0.000158395
0.0052003
0.000161682
0.00521666
0.000163903
0.00523276
0.000165199
0.00524854
0.000165659
0.00526393
0.000165325
0.00527883
0.000164221
0.00529314
0.000162373
0.00530676
0.000159823
0.00531963
0.000156632
0.00533167
0.00015287
0.00534281
0.000148619
0.00535303
0.000143968
0.00536229
0.000139015
0.00537061
0.000133858
0.00537799
0.000128593
0.00538448
0.000123312
0.00539012
0.0001181
0.00539496
0.00011303
0.00539909
0.000108164
0.00540256
0.00010355
0.00540545
9.92217e-05
0.00540783
9.52012e-05
0.00540976
9.14982e-05
0.0054113
8.81118e-05
0.00541252
8.50348e-05
0.00541344
8.22555e-05
0.0054141
7.97555e-05
0.00541452
7.75135e-05
0.00541474
7.55085e-05
0.00541477
7.37203e-05
0.00541463
7.21284e-05
0.00541434
7.07126e-05
0.00541389
6.94527e-05
0.0054133
6.83302e-05
0.00541257
6.73276e-05
0.0054117
6.64296e-05
0.00541069
6.56226e-05
0.00540954
6.48947e-05
0.00540825
6.42359e-05
0.00540681
6.36374e-05
0.00540523
6.30921e-05
0.0054035
6.25937e-05
0.00540163
6.21375e-05
0.0053996
6.17196e-05
0.00539741
6.13368e-05
0.00539507
6.09871e-05
0.00539257
6.06687e-05
0.00538991
6.03807e-05
0.00538709
6.01225e-05
0.00538411
5.98941e-05
0.00538097
5.96957e-05
0.00537765
5.95278e-05
0.00537418
5.93914e-05
0.00537053
5.92874e-05
0.00536671
5.92172e-05
0.00536272
5.91821e-05
0.00535856
5.91839e-05
0.00535422
5.92242e-05
0.0053497
5.93049e-05
0.005345
5.94279e-05
0.00534011
5.95952e-05
0.00533504
5.98091e-05
0.00532978
6.00721e-05
0.00532432
6.03868e-05
0.00531866
6.07558e-05
0.0053128
6.1182e-05
0.00530672
6.16684e-05
0.00530042
6.22181e-05
0.0052939
6.28346e-05
0.00528715
6.35214e-05
0.00528016
6.42821e-05
0.00527292
6.51208e-05
0.00526541
6.60415e-05
0.00525764
6.70487e-05
0.00524958
6.81471e-05
0.00524123
6.93414e-05
0.00523257
7.0637e-05
0.00522358
7.20393e-05
0.00521426
7.35539e-05
0.00520458
7.51872e-05
0.00519452
7.69453e-05
0.00518407
7.88352e-05
0.0051732
8.08639e-05
0.00516188
8.30389e-05
0.00515011
8.53681e-05
0.00513784
8.78597e-05
0.00512505
9.05223e-05
0.0051117
9.3365e-05
0.00509777
9.63972e-05
0.00508322
9.96288e-05
0.005068
0.00010307
0.00505209
0.000106731
0.00503542
0.000110624
0.00501797
0.000114759
0.00499966
0.000119148
0.00498045
0.000123804
0.00496028
0.000128738
0.00493909
0.000133963
0.00491679
0.000139492
0.00489333
0.000145336
0.00486862
0.000151509
0.00484257
0.000158023
0.0048151
0.000164889
0.0047861
0.000172118
0.00475546
0.000179721
0.00472308
0.000187706
0.00468882
0.000196081
0.00465256
0.000204853
0.00461414
0.000214024
0.00457343
0.000223597
0.00453024
0.000233568
0.00448441
0.000243933
0.00443575
0.00025468
0.00438405
0.000265794
0.00432909
0.000277253
0.00427065
0.000289027
0.00420849
0.00030108
0.00414234
0.000313364
0.00407193
0.000325821
0.00399698
0.000338381
0.00391718
0.000350959
0.00383222
0.000363463
0.00374179
0.000375782
0.00364556
0.000387788
0.0035432
0.000399333
0.00343441
0.000410253
0.00331888
0.000420362
0.00319634
0.000429458
0.00306655
0.000437313
0.00292936
0.00044366
0.0027847
0.00044826
0.00263258
0.000450852
0.00247317
0.000451123
0.00230682
0.000448766
0.0021341
0.000443481
0.00195583
0.000434997
0.00177321
0.000423092
0.00158782
0.000407601
0.00140182
0.00038841
0.00121795
0.000365493
0.00103949
0.000338973
0.000870106
0.000309235
0.000713508
0.000277034
0.000572835
0.000243525
0.000450141
0.000209998
0.000344909
0.000177801
0.000255166
0.00014813
0.000121713
0.000178335
0.00500249
1.11483e-05
0.00500982
3.29721e-05
0.00502171
5.40912e-05
0.00503621
7.33812e-05
0.00505142
8.93031e-05
0.00506648
0.000101814
0.00508114
0.000111609
0.00509573
0.000119566
0.00511075
0.000126516
0.00512619
0.000132768
0.00514189
0.000138212
0.00515762
0.000142662
0.00517324
0.00014606
0.00518869
0.000148451
0.00520396
0.000149932
0.00521902
0.0001506
0.00523382
0.000150523
0.0052483
0.000149744
0.00526237
0.000148299
0.00527597
0.000146228
0.00528902
0.000143583
0.00530146
0.000140427
0.00531325
0.00013683
0.00532435
0.000132871
0.00533473
0.000128631
0.00534439
0.000124194
0.00535334
0.000119643
0.0053616
0.000115056
0.0053692
0.000110505
0.00537617
0.000106056
0.00538257
0.000101761
0.00538846
9.76647e-05
0.00539388
9.37997e-05
0.00539889
9.01878e-05
0.00540355
8.68413e-05
0.0054079
8.37641e-05
0.00541198
8.09546e-05
0.00541583
7.84056e-05
0.00541948
7.61049e-05
0.00542296
7.40364e-05
0.00542628
7.21829e-05
0.00542948
7.0527e-05
0.00543255
6.90521e-05
0.00543552
6.77413e-05
0.0054384
6.6578e-05
0.00544118
6.55463e-05
0.00544388
6.46312e-05
0.00544649
6.38189e-05
0.00544901
6.30974e-05
0.00545145
6.24557e-05
0.0054538
6.18847e-05
0.00545607
6.13761e-05
0.00545823
6.09231e-05
0.00546031
6.052e-05
0.00546228
6.0162e-05
0.00546416
5.98452e-05
0.00546593
5.95666e-05
0.00546759
5.93239e-05
0.00546915
5.91155e-05
0.00547059
5.89402e-05
0.00547191
5.87975e-05
0.00547312
5.86871e-05
0.0054742
5.86092e-05
0.00547517
5.85643e-05
0.00547601
5.85533e-05
0.00547672
5.85772e-05
0.0054773
5.86372e-05
0.00547774
5.87349e-05
0.00547805
5.88719e-05
0.00547823
5.90499e-05
0.00547826
5.92711e-05
0.00547815
5.95373e-05
0.0054779
5.9851e-05
0.00547749
6.02146e-05
0.00547693
6.06307e-05
0.00547622
6.11021e-05
0.00547534
6.16318e-05
0.0054743
6.22229e-05
0.00547309
6.28789e-05
0.00547171
6.3603e-05
0.00547014
6.43992e-05
0.00546839
6.52714e-05
0.00546645
6.62237e-05
0.00546431
6.72606e-05
0.00546196
6.83866e-05
0.00545941
6.96069e-05
0.00545663
7.09266e-05
0.00545362
7.23512e-05
0.00545037
7.38866e-05
0.00544687
7.55391e-05
0.00544311
7.73151e-05
0.00543907
7.92217e-05
0.00543475
8.12661e-05
0.00543013
8.34561e-05
0.00542519
8.57999e-05
0.00541993
8.8306e-05
0.00541431
9.09835e-05
0.00540833
9.3842e-05
0.00540196
9.68916e-05
0.00539518
0.000100143
0.00538797
0.000103607
0.00538031
0.000107295
0.00537216
0.00011122
0.00536349
0.000115394
0.00535429
0.00011983
0.0053445
0.000124543
0.0053341
0.000129547
0.00532305
0.000134857
0.0053113
0.000140488
0.00529881
0.000146455
0.00528552
0.000152777
0.00527139
0.000159468
0.00525636
0.000166547
0.00524035
0.000174029
0.00522331
0.000181933
0.00520515
0.000190276
0.00518579
0.000199073
0.00516516
0.000208343
0.00514314
0.000218099
0.00511964
0.000228357
0.00509453
0.00023913
0.0050677
0.00025043
0.005039
0.000262265
0.00500829
0.000274643
0.0049754
0.000287566
0.00494017
0.000301034
0.00490238
0.00031504
0.00486183
0.000329573
0.0048183
0.000344614
0.00477152
0.000360138
0.00472124
0.000376106
0.00466715
0.000392474
0.00460892
0.000409184
0.00454622
0.000426165
0.00447867
0.000443333
0.00440587
0.000460585
0.0043274
0.000477801
0.00424282
0.000494839
0.00415164
0.000511537
0.0040534
0.000527705
0.00394758
0.000543127
0.00383368
0.000557558
0.00371121
0.000570736
0.00357969
0.000582368
0.00343869
0.000592119
0.00328784
0.000599625
0.00312682
0.000604493
0.00295554
0.000606278
0.00277405
0.000604582
0.00258264
0.000599011
0.00238196
0.000589091
0.00217305
0.000574401
0.00195742
0.000554604
0.00173717
0.000529487
0.00151524
0.000498962
0.00129567
0.0004631
0.00108347
0.000422201
0.000884298
0.000376968
0.000703629
0.000328799
0.000279869
0.000545473
0.00500185
9.29983e-06
0.00500728
2.7539e-05
0.00501604
4.53328e-05
0.00502755
6.18693e-05
0.00504038
7.64712e-05
0.00505372
8.84768e-05
0.00506711
9.82162e-05
0.00508051
0.000106167
0.00509415
0.000112874
0.00510819
0.000118736
0.00512255
0.000123849
0.00513708
0.000128132
0.00515162
0.000131516
0.00516608
0.000133992
0.0051804
0.000135612
0.00519455
0.000136452
0.00520849
0.000136587
0.00522216
0.000136073
0.0052355
0.000134956
0.00524845
0.000133276
0.00526095
0.000131082
0.00527295
0.000128427
0.00528441
0.000125374
0.00529529
0.000121989
0.00530558
0.000118344
0.00531526
0.00011451
0.00532435
0.000110558
0.00533285
0.000106556
0.00534079
0.000102565
0.0053482
9.86433e-05
0.00535512
9.48375e-05
0.0053616
9.11875e-05
0.00536767
8.77236e-05
0.00537339
8.44677e-05
0.0053788
8.14337e-05
0.00538394
7.86288e-05
0.00538884
7.60543e-05
0.00539354
7.37066e-05
0.00539806
7.15776e-05
0.00540244
6.96558e-05
0.0054067
6.79275e-05
0.00541085
6.63789e-05
0.0054149
6.49959e-05
0.00541888
6.37648e-05
0.00542279
6.26716e-05
0.00542663
6.1703e-05
0.00543042
6.08462e-05
0.00543415
6.0089e-05
0.00543782
5.94209e-05
0.00544145
5.88319e-05
0.00544502
5.83137e-05
0.00544853
5.78589e-05
0.005452
5.74611e-05
0.0054554
5.71149e-05
0.00545875
5.68158e-05
0.00546203
5.65602e-05
0.00546525
5.6345e-05
0.00546841
5.61682e-05
0.0054715
5.60279e-05
0.00547451
5.59232e-05
0.00547746
5.58533e-05
0.00548033
5.58181e-05
0.00548312
5.58176e-05
0.00548583
5.58524e-05
0.00548846
5.59233e-05
0.00549101
5.60312e-05
0.00549347
5.61775e-05
0.00549584
5.63635e-05
0.00549812
5.65911e-05
0.00550031
5.6862e-05
0.0055024
5.71782e-05
0.00550439
5.75421e-05
0.00550629
5.79559e-05
0.00550808
5.84222e-05
0.00550977
5.89438e-05
0.00551135
5.95237e-05
0.00551281
6.01648e-05
0.00551417
6.08707e-05
0.0055154
6.16447e-05
0.00551651
6.24906e-05
0.0055175
6.34124e-05
0.00551836
6.44143e-05
0.00551908
6.55007e-05
0.00551966
6.66763e-05
0.00552011
6.79462e-05
0.0055204
6.93155e-05
0.00552053
7.07899e-05
0.00552051
7.23754e-05
0.00552032
7.40782e-05
0.00551995
7.59049e-05
0.0055194
7.78626e-05
0.00551867
7.99588e-05
0.00551773
8.22013e-05
0.00551659
8.45984e-05
0.00551523
8.7159e-05
0.00551364
8.98924e-05
0.00551182
9.28083e-05
0.00550974
9.59172e-05
0.00550741
9.923e-05
0.00550479
0.000102758
0.00550188
0.000106514
0.00549867
0.00011051
0.00549513
0.000114759
0.00549125
0.000119277
0.005487
0.000124076
0.00548237
0.000129174
0.00547733
0.000134586
0.00547186
0.000140328
0.00546593
0.000146419
0.00545951
0.000152876
0.00545256
0.000159719
0.00544507
0.000166967
0.00543697
0.00017464
0.00542824
0.000182759
0.00541883
0.000191344
0.00540869
0.000200417
0.00539777
0.000209999
0.00538599
0.000220113
0.00537331
0.00023078
0.00535965
0.000242021
0.00534492
0.000253856
0.00532905
0.000266307
0.00531192
0.00027939
0.00529344
0.000293123
0.00527348
0.000307522
0.00525192
0.000322597
0.0052286
0.000338358
0.00520337
0.00035481
0.00517603
0.000371951
0.00514639
0.000389775
0.00511423
0.00040827
0.00507929
0.000427414
0.00504129
0.000447177
0.00499994
0.000467517
0.0049549
0.000488381
0.00490578
0.000509701
0.00485219
0.000531394
0.00479367
0.000553358
0.00472974
0.000575468
0.00465986
0.000597578
0.00458348
0.000619515
0.00449996
0.000641079
0.00440865
0.00066204
0.00430889
0.000682134
0.00419995
0.000701056
0.00408112
0.000718459
0.00395166
0.00073395
0.00381085
0.000747086
0.00365803
0.000757406
0.00349263
0.000764403
0.00331421
0.000767518
0.00312247
0.000766143
0.00291745
0.000759621
0.0026995
0.000747437
0.00246949
0.000728976
0.00222894
0.000703642
0.00198011
0.00067103
0.00172611
0.00063097
0.00147137
0.000583546
0.000529196
0.00122204
0.00500144
7.86094e-06
0.00500568
2.33026e-05
0.00501255
3.84552e-05
0.00502174
5.26816e-05
0.00503256
6.56471e-05
0.00504425
7.67955e-05
0.00505635
8.61125e-05
0.00506867
9.38465e-05
0.00508122
0.000100326
0.00509409
0.000105865
0.00510729
0.000110647
0.00512073
0.000114695
0.00513428
0.000117969
0.00514782
0.000120447
0.00516129
0.000122147
0.00517462
0.000123121
0.00518777
0.000123433
0.0052007
0.000123143
0.00521335
0.000122303
0.00522567
0.000120956
0.00523761
0.000119146
0.00524912
0.000116922
0.00526015
0.000114338
0.00527069
0.00011145
0.00528071
0.000108322
0.00529021
0.000105013
0.00529918
0.000101586
0.00530764
9.80983e-05
0.0053156
9.46048e-05
0.00532309
9.1154e-05
0.00533014
8.77886e-05
0.00533678
8.45441e-05
0.00534306
8.14488e-05
0.005349
7.85239e-05
0.00535465
7.57842e-05
0.00536004
7.32382e-05
0.00536521
7.08894e-05
0.00537017
6.87371e-05
0.00537498
6.67759e-05
0.00537963
6.49979e-05
0.00538417
6.3393e-05
0.0053886
6.19502e-05
0.00539294
6.06581e-05
0.0053972
5.95052e-05
0.00540139
5.84801e-05
0.00540552
5.75714e-05
0.0054096
5.67682e-05
0.00541362
5.60603e-05
0.00541761
5.54381e-05
0.00542155
5.48931e-05
0.00542544
5.44177e-05
0.0054293
5.40051e-05
0.00543311
5.36496e-05
0.00543688
5.33462e-05
0.0054406
5.30908e-05
0.00544428
5.28799e-05
0.00544792
5.27109e-05
0.0054515
5.25815e-05
0.00545504
5.24903e-05
0.00545853
5.24361e-05
0.00546196
5.24183e-05
0.00546534
5.24367e-05
0.00546867
5.24915e-05
0.00547194
5.25832e-05
0.00547515
5.27124e-05
0.0054783
5.28803e-05
0.00548139
5.30881e-05
0.00548442
5.33373e-05
0.00548738
5.36296e-05
0.00549027
5.39669e-05
0.0054931
5.43512e-05
0.00549586
5.47849e-05
0.00549854
5.52704e-05
0.00550115
5.58103e-05
0.00550369
5.64075e-05
0.00550615
5.7065e-05
0.00550853
5.7786e-05
0.00551083
5.8574e-05
0.00551304
5.94325e-05
0.00551516
6.03655e-05
0.0055172
6.13771e-05
0.00551914
6.24717e-05
0.00552099
6.36537e-05
0.00552274
6.49282e-05
0.00552438
6.63003e-05
0.00552592
6.77755e-05
0.00552735
6.93596e-05
0.00552867
7.10588e-05
0.00552987
7.28796e-05
0.00553094
7.48288e-05
0.00553189
7.6914e-05
0.00553271
7.91427e-05
0.00553339
8.15232e-05
0.00553392
8.40641e-05
0.0055343
8.67746e-05
0.00553453
8.96644e-05
0.0055346
9.27437e-05
0.00553449
9.60234e-05
0.00553421
9.95148e-05
0.00553373
0.00010323
0.00553307
0.000107182
0.00553219
0.000111383
0.0055311
0.000115848
0.00552979
0.000120592
0.00552823
0.000125631
0.00552643
0.000130979
0.00552436
0.000136655
0.00552201
0.000142677
0.00551937
0.000149063
0.00551641
0.000155833
0.00551312
0.000163006
0.00550949
0.000170605
0.00550548
0.00017865
0.00550107
0.000187165
0.00549624
0.000196173
0.00549096
0.000205698
0.00548519
0.000215765
0.00547891
0.000226398
0.00547207
0.000237623
0.00546462
0.000249465
0.00545653
0.000261951
0.00544773
0.000275105
0.00543817
0.000288953
0.00542777
0.000303519
0.00541647
0.000318826
0.00540417
0.000334896
0.00539078
0.000351749
0.00537618
0.000369402
0.00536027
0.000387869
0.00534288
0.00040716
0.00532387
0.00042728
0.00530306
0.00044823
0.00528023
0.000470003
0.00525516
0.000492585
0.00522759
0.00051595
0.00519723
0.000540066
0.00516374
0.000564885
0.00512675
0.000590346
0.00508585
0.000616369
0.00504057
0.000642858
0.00499039
0.000669692
0.00493474
0.000696728
0.00487299
0.000723792
0.00480444
0.000750677
0.00472836
0.000777142
0.00464392
0.000802899
0.00455025