/*--------------------------------*- C++ -*----------------------------------*\
| =========                 |                                                 |
| \\      /  F ield         | OpenFOAM: The Open Source CFD Toolbox           |
|  \\    /   O peration     | Version:  2306                                  |
|   \\  /    A nd           | Website:  www.openfoam.com                      |
|    \\/     M anipulation  |                                                 |
\*---------------------------------------------------------------------------*/
FoamFile
{
    version     2.0;
    format      ascii;
    arch        "LSB;label=32;scalar=64";
    class       volVectorField;
    location    "0.275";
    object      U;
}
// * * * * * * * * * * * * * * * * * * * * * * * * * * * * * * * * * * * * * //

dimensions      [0 1 -1 0 0 0 0];

internalField   nonuniform List<vector> 
17600
(
(9.80708 0.0850068 0)
(9.62282 0.1805 0)
(9.41196 0.217949 0)
(9.14628 0.225578 0)
(8.83439 0.2251 0)
(8.49836 0.225385 0)
(8.15616 0.226736 0)
(7.81672 0.227129 0)
(7.48269 0.225219 0)
(7.15415 0.220818 0)
(6.83067 0.214448 0)
(6.51243 0.206753 0)
(6.20026 0.19816 0)
(5.89551 0.188852 0)
(5.59966 0.178847 0)
(5.31425 0.168129 0)
(5.04059 0.156697 0)
(4.78012 0.144613 0)
(4.53373 0.131894 0)
(4.3022 0.118628 0)
(4.0862 0.104998 0)
(3.88621 0.0912595 0)
(3.70252 0.0777052 0)
(3.53514 0.0646291 0)
(3.38384 0.0523006 0)
(3.24812 0.0409458 0)
(3.12726 0.0307341 0)
(3.02036 0.0217716 0)
(2.92635 0.0141007 0)
(2.84409 0.0077069 0)
(2.77239 0.00252981 0)
(2.71003 -0.00152479 0)
(2.65585 -0.0045708 0)
(2.6087 -0.00673278 0)
(2.56755 -0.00813326 0)
(2.53143 -0.00889411 0)
(2.49947 -0.00912491 0)
(2.47096 -0.00895652 0)
(2.44526 -0.00851013 0)
(2.42184 -0.00787964 0)
(2.40024 -0.00713414 0)
(2.38008 -0.00632483 0)
(2.36103 -0.00549012 0)
(2.34284 -0.00465855 0)
(2.3253 -0.00385077 0)
(2.30826 -0.00308119 0)
(2.29159 -0.00235945 0)
(2.27521 -0.00169152 0)
(2.25904 -0.00108057 0)
(2.24305 -0.000527557 0)
(2.2272 -3.16641e-05 0)
(2.21146 0.000409262 0)
(2.19583 0.000798371 0)
(2.18031 0.00113948 0)
(2.16488 0.00143679 0)
(2.14954 0.00169467 0)
(2.13432 0.00191746 0)
(2.11919 0.00210941 0)
(2.10417 0.00227452 0)
(2.08926 0.00241652 0)
(2.07445 0.00253887 0)
(2.05975 0.00264471 0)
(2.04516 0.00273687 0)
(2.03067 0.00281789 0)
(2.01628 0.00289002 0)
(2.00197 0.00295526 0)
(1.98775 0.00301536 0)
(1.97361 0.00307185 0)
(1.95953 0.00312607 0)
(1.9455 0.00317916 0)
(1.93151 0.00323207 0)
(1.91755 0.00328559 0)
(1.9036 0.00334041 0)
(1.88965 0.00339722 0)
(1.87569 0.00345668 0)
(1.86169 0.00351939 0)
(1.84763 0.0035859 0)
(1.83351 0.00365668 0)
(1.8193 0.00373215 0)
(1.80498 0.00381268 0)
(1.79054 0.00389859 0)
(1.77594 0.00399019 0)
(1.76117 0.00408776 0)
(1.74621 0.00419154 0)
(1.73103 0.00430176 0)
(1.71561 0.00441862 0)
(1.69992 0.0045423 0)
(1.68394 0.00467295 0)
(1.66765 0.0048107 0)
(1.651 0.00495563 0)
(1.63399 0.00510782 0)
(1.61657 0.00526727 0)
(1.59872 0.00543395 0)
(1.58041 0.00560778 0)
(1.5616 0.00578862 0)
(1.54227 0.00597622 0)
(1.52238 0.00617028 0)
(1.50189 0.00637037 0)
(1.48079 0.00657595 0)
(1.45902 0.00678634 0)
(1.43656 0.00700068 0)
(1.41337 0.00721791 0)
(1.38942 0.00743671 0)
(1.36467 0.00765555 0)
(1.33909 0.00787268 0)
(1.31265 0.00808671 0)
(1.28532 0.00829623 0)
(1.25706 0.00849944 0)
(1.22786 0.00869416 0)
(1.19768 0.00887803 0)
(1.1665 0.00904851 0)
(1.13431 0.00920252 0)
(1.1011 0.00933655 0)
(1.06685 0.00944659 0)
(1.03158 0.0095282 0)
(0.995282 0.00957672 0)
(0.957982 0.00958737 0)
(0.919704 0.00955533 0)
(0.880487 0.00947587 0)
(0.840381 0.00934459 0)
(0.799449 0.00915766 0)
(0.757768 0.00891216 0)
(0.715431 0.00860643 0)
(0.672543 0.00824048 0)
(0.629227 0.00781653 0)
(0.585621 0.00733945 0)
(0.541874 0.00681726 0)
(0.498151 0.00626148 0)
(0.454625 0.00568727 0)
(0.411478 0.00511319 0)
(0.368898 0.00456023 0)
(0.327073 0.00405013 0)
(0.286192 0.00360241 0)
(0.246441 0.00323082 0)
(0.208003 0.00293934 0)
(0.171057 0.00271859 0)
(0.135783 0.00254343 0)
(0.102362 0.00237371 0)
(0.0709767 0.00215975 0)
(0.0417973 0.00185344 0)
(0.0149631 0.00142433 0)
(-0.00941458 0.000882487 0)
(-0.0313119 0.000253554 0)
(-0.0508232 -0.000389374 0)
(-0.0680927 -0.000956424 0)
(-0.0832731 -0.00137968 0)
(-0.0964921 -0.00164613 0)
(-0.107777 -0.00183385 0)
(-0.117074 -0.00204374 0)
(-0.124358 -0.00226278 0)
(-0.129753 -0.00240465 0)
(-0.133574 -0.00238598 0)
(-0.136184 -0.00225853 0)
(-0.137794 -0.00213125 0)
(-0.138476 -0.0020434 0)
(-0.138294 -0.00196563 0)
(-0.137364 -0.0019013 0)
(-0.135598 -0.0019878 0)
(-0.132549 -0.00238825 0)
(-0.127692 -0.00307952 0)
(10.0008 0.122279 0)
(10.0676 0.272137 0)
(10.1383 0.342321 0)
(10.1915 0.367553 0)
(10.2161 0.377243 0)
(10.2123 0.385769 0)
(10.1866 0.395783 0)
(10.1458 0.40522 0)
(10.094 0.411969 0)
(10.033 0.415277 0)
(9.96332 0.41546 0)
(9.88493 0.413208 0)
(9.79809 0.40907 0)
(9.70347 0.403325 0)
(9.60187 0.396017 0)
(9.49434 0.387102 0)
(9.38178 0.376511 0)
(9.26523 0.364236 0)
(9.14543 0.350294 0)
(9.02323 0.334784 0)
(8.89946 0.317889 0)
(8.77496 0.29986 0)
(8.65048 0.280992 0)
(8.52674 0.261606 0)
(8.40441 0.24203 0)
(8.28405 0.222584 0)
(8.16616 0.20357 0)
(8.05117 0.185256 0)
(7.93943 0.167863 0)
(7.8312 0.151568 0)
(7.72666 0.136491 0)
(7.62595 0.122706 0)
(7.52909 0.110234 0)
(7.43609 0.0990659 0)
(7.34685 0.0891494 0)
(7.26132 0.0804196 0)
(7.17927 0.072786 0)
(7.10056 0.0661695 0)
(7.02505 0.0604905 0)
(6.95255 0.0556601 0)
(6.8829 0.0515809 0)
(6.81592 0.0481528 0)
(6.75143 0.0452787 0)
(6.68925 0.0428694 0)
(6.62923 0.0408459 0)
(6.57121 0.0391405 0)
(6.51505 0.0376955 0)
(6.46062 0.0364628 0)
(6.40779 0.0354023 0)
(6.35647 0.0344809 0)
(6.30654 0.0336714 0)
(6.25792 0.0329519 0)
(6.21053 0.0323048 0)
(6.16428 0.0317164 0)
(6.1191 0.031176 0)
(6.07494 0.0306755 0)
(6.03173 0.0302088 0)
(5.98941 0.0297714 0)
(5.94793 0.0293604 0)
(5.90725 0.0289736 0)
(5.86731 0.0286099 0)
(5.82807 0.0282687 0)
(5.78949 0.0279498 0)
(5.75152 0.0276536 0)
(5.71413 0.0273805 0)
(5.67727 0.0271312 0)
(5.64092 0.0269066 0)
(5.60502 0.0267076 0)
(5.56954 0.0265352 0)
(5.53445 0.0263905 0)
(5.4997 0.0262743 0)
(5.46525 0.0261878 0)
(5.43108 0.0261319 0)
(5.39714 0.0261074 0)
(5.3634 0.0261154 0)
(5.3298 0.0261569 0)
(5.29633 0.026233 0)
(5.26292 0.0263447 0)
(5.22956 0.0264933 0)
(5.19618 0.0266797 0)
(5.16275 0.0269053 0)
(5.12923 0.0271713 0)
(5.09557 0.0274789 0)
(5.06171 0.0278295 0)
(5.02763 0.0282246 0)
(4.99326 0.0286656 0)
(4.95855 0.029154 0)
(4.92346 0.0296915 0)
(4.88792 0.0302796 0)
(4.85189 0.0309201 0)
(4.81529 0.0316146 0)
(4.77807 0.0323651 0)
(4.74017 0.0331733 0)
(4.70152 0.034041 0)
(4.66205 0.0349701 0)
(4.6217 0.0359625 0)
(4.58037 0.0370198 0)
(4.53801 0.038144 0)
(4.49453 0.0393366 0)
(4.44984 0.0405992 0)
(4.40386 0.0419332 0)
(4.35649 0.0433398 0)
(4.30766 0.0448198 0)
(4.25725 0.0463739 0)
(4.20517 0.048002 0)
(4.15131 0.0497034 0)
(4.09558 0.0514761 0)
(4.03787 0.0533174 0)
(3.97805 0.055224 0)
(3.91602 0.0571914 0)
(3.85167 0.0592144 0)
(3.78487 0.0612864 0)
(3.71552 0.0633997 0)
(3.64348 0.0655447 0)
(3.56866 0.0677104 0)
(3.49093 0.0698833 0)
(3.41018 0.0720483 0)
(3.32633 0.0741873 0)
(3.23927 0.0762802 0)
(3.14892 0.0783038 0)
(3.05522 0.0802322 0)
(2.95812 0.0820367 0)
(2.85758 0.0836859 0)
(2.75361 0.0851459 0)
(2.64623 0.0863803 0)
(2.53552 0.0873511 0)
(2.42157 0.0880192 0)
(2.30457 0.0883453 0)
(2.18472 0.0882908 0)
(2.06231 0.0878194 0)
(1.93771 0.0868985 0)
(1.81135 0.0855013 0)
(1.68376 0.0836095 0)
(1.55555 0.0812158 0)
(1.42741 0.0783254 0)
(1.3001 0.0749563 0)
(1.17444 0.0711413 0)
(1.05127 0.0669326 0)
(0.931438 0.062407 0)
(0.815734 0.0576698 0)
(0.704889 0.0528536 0)
(0.599532 0.0481209 0)
(0.500182 0.0436039 0)
(0.407255 0.0393918 0)
(0.321071 0.0354736 0)
(0.241871 0.0317138 0)
(0.169703 0.0279098 0)
(0.104688 0.0239653 0)
(0.0469567 0.019905 0)
(-0.00363109 0.0158823 0)
(-0.0474904 0.0122174 0)
(-0.0853165 0.00914827 0)
(-0.11768 0.00670246 0)
(-0.14484 0.00454082 0)
(-0.16707 0.00251892 0)
(-0.18479 0.000707716 0)
(-0.19854 -0.000922315 0)
(-0.208516 -0.00292177 0)
(-0.214496 -0.00573504 0)
(-0.216221 -0.00895116 0)
(10.0003 0.0614122 0)
(10.0359 0.160323 0)
(10.0898 0.227823 0)
(10.1516 0.268451 0)
(10.2101 0.293286 0)
(10.2592 0.312151 0)
(10.298 0.330013 0)
(10.3292 0.34748 0)
(10.3556 0.363366 0)
(10.3789 0.376572 0)
(10.3993 0.3867 0)
(10.4165 0.39393 0)
(10.4298 0.398644 0)
(10.4388 0.401151 0)
(10.4433 0.401594 0)
(10.4434 0.399983 0)
(10.4391 0.396276 0)
(10.4303 0.390452 0)
(10.4173 0.382572 0)
(10.4001 0.372765 0)
(10.3788 0.361217 0)
(10.3536 0.34816 0)
(10.3247 0.333865 0)
(10.2925 0.318628 0)
(10.2571 0.302762 0)
(10.2189 0.286581 0)
(10.1783 0.270385 0)
(10.1356 0.254454 0)
(10.0911 0.239024 0)
(10.0453 0.224294 0)
(9.99841 0.21041 0)
(9.95077 0.197474 0)
(9.90263 0.185536 0)
(9.85424 0.174614 0)
(9.80577 0.164687 0)
(9.75742 0.155716 0)
(9.70926 0.147642 0)
(9.66143 0.14041 0)
(9.61401 0.133966 0)
(9.56702 0.128244 0)
(9.5205 0.123171 0)
(9.47445 0.118668 0)
(9.42886 0.114656 0)
(9.38374 0.111064 0)
(9.33908 0.107828 0)
(9.29486 0.104892 0)
(9.25108 0.102212 0)
(9.20771 0.0997465 0)
(9.16475 0.0974645 0)
(9.12218 0.095339 0)
(9.07998 0.0933478 0)
(9.03814 0.0914732 0)
(8.99665 0.0897006 0)
(8.95549 0.0880185 0)
(8.91465 0.0864181 0)
(8.87412 0.0848925 0)
(8.83388 0.0834366 0)
(8.79394 0.0820466 0)
(8.75427 0.0807199 0)
(8.71487 0.0794548 0)
(8.67572 0.0782503 0)
(8.63682 0.0771059 0)
(8.59814 0.0760218 0)
(8.55969 0.0749983 0)
(8.52145 0.074036 0)
(8.4834 0.0731358 0)
(8.44553 0.0722987 0)
(8.40783 0.071526 0)
(8.37027 0.0708189 0)
(8.33284 0.0701789 0)
(8.29552 0.0696075 0)
(8.2583 0.0691063 0)
(8.22114 0.0686773 0)
(8.18403 0.0683221 0)
(8.14694 0.0680428 0)
(8.10986 0.0678411 0)
(8.07274 0.0677192 0)
(8.03556 0.0676792 0)
(7.9983 0.0677232 0)
(7.96092 0.0678536 0)
(7.92338 0.0680729 0)
(7.88566 0.0683839 0)
(7.8477 0.0687892 0)
(7.80949 0.0692921 0)
(7.77096 0.0698955 0)
(7.73208 0.0706031 0)
(7.6928 0.0714184 0)
(7.65307 0.0723453 0)
(7.61284 0.0733878 0)
(7.57206 0.0745503 0)
(7.53066 0.0758373 0)
(7.48858 0.0772536 0)
(7.44577 0.0788042 0)
(7.40215 0.0804944 0)
(7.35765 0.0823297 0)
(7.31219 0.0843156 0)
(7.26571 0.0864583 0)
(7.2181 0.0887636 0)
(7.16928 0.091238 0)
(7.11917 0.0938877 0)
(7.06765 0.0967193 0)
(7.01463 0.0997393 0)
(6.96 0.102954 0)
(6.90364 0.10637 0)
(6.84542 0.109994 0)
(6.78523 0.113831 0)
(6.72292 0.117885 0)
(6.65836 0.122161 0)
(6.59139 0.126661 0)
(6.52186 0.131389 0)
(6.44961 0.136344 0)
(6.37446 0.141525 0)
(6.29623 0.14693 0)
(6.21475 0.152554 0)
(6.12981 0.15839 0)
(6.04121 0.164427 0)
(5.94875 0.170651 0)
(5.85221 0.177046 0)
(5.75137 0.18359 0)
(5.64601 0.190256 0)
(5.5359 0.19701 0)
(5.42081 0.203814 0)
(5.30052 0.21062 0)
(5.17479 0.217374 0)
(5.04342 0.224012 0)
(4.90621 0.230461 0)
(4.76296 0.236636 0)
(4.61351 0.242441 0)
(4.45773 0.247768 0)
(4.29553 0.252497 0)
(4.12687 0.256493 0)
(3.95176 0.259612 0)
(3.77031 0.261694 0)
(3.58272 0.262577 0)
(3.38929 0.262097 0)
(3.19045 0.260098 0)
(2.98678 0.256439 0)
(2.77905 0.251007 0)
(2.56824 0.243733 0)
(2.35554 0.234606 0)
(2.1424 0.22369 0)
(1.93052 0.211136 0)
(1.72185 0.197177 0)
(1.51853 0.182124 0)
(1.32277 0.166337 0)
(1.13673 0.150211 0)
(0.962231 0.134129 0)
(0.800713 0.11857 0)
(0.652791 0.104097 0)
(0.518293 0.0910797 0)
(0.39689 0.0795278 0)
(0.288311 0.0689444 0)
(0.192202 0.058745 0)
(0.108567 0.0487788 0)
(0.0366903 0.0391362 0)
(-0.0244892 0.0303186 0)
(-0.0764417 0.0224001 0)
(-0.119918 0.0145799 0)
(-0.155227 0.00609464 0)
(-0.182733 -0.00238327 0)
(10.0002 0.0417812 0)
(10.0198 0.117276 0)
(10.0537 0.178916 0)
(10.0983 0.224503 0)
(10.1468 0.25657 0)
(10.1935 0.280049 0)
(10.2355 0.29931 0)
(10.2732 0.316685 0)
(10.3082 0.33256 0)
(10.3422 0.346428 0)
(10.376 0.357802 0)
(10.4096 0.366544 0)
(10.4428 0.372811 0)
(10.4748 0.376857 0)
(10.5055 0.378879 0)
(10.5345 0.378975 0)
(10.5616 0.377182 0)
(10.5867 0.37353 0)
(10.6096 0.368084 0)
(10.6301 0.360951 0)
(10.6482 0.352277 0)
(10.6636 0.342245 0)
(10.6764 0.331066 0)
(10.6863 0.318976 0)
(10.6935 0.306224 0)
(10.698 0.293062 0)
(10.6999 0.27974 0)
(10.6993 0.266486 0)
(10.6964 0.253506 0)
(10.6914 0.240975 0)
(10.6846 0.229033 0)
(10.6761 0.217782 0)
(10.6661 0.207294 0)
(10.6549 0.197606 0)
(10.6427 0.188732 0)
(10.6295 0.180661 0)
(10.6156 0.17337 0)
(10.6011 0.166811 0)
(10.586 0.160925 0)
(10.5705 0.155649 0)
(10.5546 0.150923 0)
(10.5383 0.146687 0)
(10.5217 0.142885 0)
(10.5048 0.139464 0)
(10.4876 0.136377 0)
(10.4701 0.133579 0)
(10.4524 0.131032 0)
(10.4344 0.128701 0)
(10.4162 0.126558 0)
(10.3978 0.124576 0)
(10.3791 0.122734 0)
(10.3602 0.121014 0)
(10.341 0.119399 0)
(10.3216 0.117878 0)
(10.302 0.11644 0)
(10.2821 0.115078 0)
(10.262 0.113784 0)
(10.2416 0.112555 0)
(10.221 0.111388 0)
(10.2001 0.110279 0)
(10.179 0.109227 0)
(10.1576 0.108234 0)
(10.136 0.107297 0)
(10.1142 0.106419 0)
(10.0921 0.1056 0)
(10.0698 0.104842 0)
(10.0472 0.104147 0)
(10.0244 0.103517 0)
(10.0013 0.102955 0)
(9.97797 0.102462 0)
(9.95437 0.102043 0)
(9.9305 0.101699 0)
(9.90636 0.101435 0)
(9.88193 0.101253 0)
(9.8572 0.101159 0)
(9.83217 0.101154 0)
(9.80681 0.101244 0)
(9.78112 0.101432 0)
(9.75508 0.101723 0)
(9.72867 0.102121 0)
(9.70187 0.10263 0)
(9.67466 0.103255 0)
(9.64701 0.104002 0)
(9.61891 0.104877 0)
(9.59032 0.105884 0)
(9.56121 0.107029 0)
(9.53155 0.10832 0)
(9.50131 0.109762 0)
(9.47045 0.111364 0)
(9.43893 0.113131 0)
(9.4067 0.115072 0)
(9.37372 0.117196 0)
(9.33994 0.11951 0)
(9.30531 0.122023 0)
(9.26976 0.124746 0)
(9.23325 0.127688 0)
(9.19569 0.130859 0)
(9.15703 0.13427 0)
(9.11719 0.137931 0)
(9.07608 0.141855 0)
(9.03363 0.146053 0)
(8.98974 0.150538 0)
(8.94432 0.155321 0)
(8.89726 0.160416 0)
(8.84845 0.165834 0)
(8.79778 0.17159 0)
(8.74512 0.177695 0)
(8.69033 0.184163 0)
(8.63328 0.191005 0)
(8.57381 0.198234 0)
(8.51176 0.20586 0)
(8.44696 0.213892 0)
(8.37923 0.22234 0)
(8.30837 0.231209 0)
(8.23417 0.240505 0)
(8.15643 0.250228 0)
(8.07489 0.260379 0)
(7.98933 0.270952 0)
(7.89947 0.281938 0)
(7.80505 0.293325 0)
(7.70577 0.305091 0)
(7.60133 0.31721 0)
(7.4914 0.329647 0)
(7.37566 0.342359 0)
(7.25376 0.355292 0)
(7.12532 0.36838 0)
(6.98999 0.381544 0)
(6.84737 0.394692 0)
(6.69707 0.407712 0)
(6.53872 0.420479 0)
(6.37191 0.432844 0)
(6.19627 0.44464 0)
(6.01144 0.455676 0)
(5.81709 0.465737 0)
(5.61293 0.474579 0)
(5.39873 0.481933 0)
(5.17431 0.48751 0)
(4.93963 0.491005 0)
(4.69473 0.492096 0)
(4.43986 0.490454 0)
(4.17542 0.485747 0)
(3.9021 0.477652 0)
(3.62089 0.465875 0)
(3.33313 0.450194 0)
(3.04058 0.430489 0)
(2.74554 0.406798 0)
(2.45086 0.379381 0)
(2.15998 0.348754 0)
(1.87684 0.315732 0)
(1.60572 0.281463 0)
(1.35098 0.247256 0)
(1.11654 0.21441 0)
(0.9052 0.183918 0)
(0.718159 0.156897 0)
(0.553894 0.133841 0)
(0.410255 0.114198 0)
(0.284857 0.0961152 0)
(0.176999 0.0780087 0)
(0.0851663 0.0589331 0)
(0.00756992 0.0400233 0)
(10.0001 0.0316627 0)
(10.0128 0.0917412 0)
(10.036 0.145038 0)
(10.0682 0.188698 0)
(10.1059 0.222282 0)
(10.1451 0.247719 0)
(10.1829 0.267814 0)
(10.2183 0.284869 0)
(10.2517 0.299983 0)
(10.2843 0.313285 0)
(10.3168 0.32452 0)
(10.3498 0.333476 0)
(10.383 0.340137 0)
(10.4162 0.344639 0)
(10.449 0.34716 0)
(10.4811 0.347851 0)
(10.5124 0.346814 0)
(10.5427 0.344126 0)
(10.5719 0.339867 0)
(10.5998 0.334136 0)
(10.6264 0.327061 0)
(10.6514 0.318797 0)
(10.6746 0.309521 0)
(10.6961 0.29943 0)
(10.7157 0.288731 0)
(10.7334 0.277634 0)
(10.7492 0.266346 0)
(10.7632 0.255061 0)
(10.7754 0.243955 0)
(10.7859 0.233178 0)
(10.7948 0.222855 0)
(10.8024 0.213084 0)
(10.8087 0.203933 0)
(10.8139 0.195445 0)
(10.8182 0.187643 0)
(10.8216 0.180526 0)
(10.8243 0.174076 0)
(10.8263 0.168259 0)
(10.8278 0.163027 0)
(10.8289 0.158333 0)
(10.8295 0.154129 0)
(10.8297 0.150369 0)
(10.8296 0.14701 0)
(10.8291 0.14401 0)
(10.8283 0.141329 0)
(10.8273 0.138928 0)
(10.8259 0.136773 0)
(10.8243 0.134832 0)
(10.8224 0.133077 0)
(10.8203 0.131484 0)
(10.8178 0.13003 0)
(10.8151 0.128698 0)
(10.8121 0.127472 0)
(10.8088 0.12634 0)
(10.8052 0.125292 0)
(10.8013 0.124318 0)
(10.7971 0.123414 0)
(10.7925 0.122573 0)
(10.7877 0.121792 0)
(10.7825 0.12107 0)
(10.7771 0.120405 0)
(10.7713 0.119796 0)
(10.7651 0.119244 0)
(10.7587 0.118749 0)
(10.7519 0.118314 0)
(10.7448 0.117941 0)
(10.7373 0.11763 0)
(10.7295 0.117387 0)
(10.7214 0.117212 0)
(10.7128 0.11711 0)
(10.704 0.117084 0)
(10.6948 0.117139 0)
(10.6852 0.117277 0)
(10.6752 0.117504 0)
(10.6649 0.117824 0)
(10.6542 0.118242 0)
(10.6431 0.118764 0)
(10.6315 0.119393 0)
(10.6196 0.120136 0)
(10.6072 0.120999 0)
(10.5944 0.121987 0)
(10.5812 0.123108 0)
(10.5674 0.124369 0)
(10.5532 0.125776 0)
(10.5384 0.127336 0)
(10.5232 0.12906 0)
(10.5073 0.130953 0)
(10.4909 0.133026 0)
(10.4739 0.135289 0)
(10.4563 0.13775 0)
(10.438 0.140421 0)
(10.419 0.143312 0)
(10.3993 0.146435 0)
(10.3788 0.149802 0)
(10.3574 0.153427 0)
(10.3353 0.157322 0)
(10.3122 0.161502 0)
(10.2882 0.16598 0)
(10.2631 0.170774 0)
(10.237 0.175899 0)
(10.2097 0.181371 0)
(10.1813 0.187208 0)
(10.1515 0.193428 0)
(10.1204 0.20005 0)
(10.0879 0.207092 0)
(10.0538 0.214574 0)
(10.018 0.222516 0)
(9.98054 0.23094 0)
(9.94119 0.239864 0)
(9.89986 0.249311 0)
(9.85641 0.259301 0)
(9.8107 0.269854 0)
(9.76257 0.28099 0)
(9.71186 0.292728 0)
(9.6584 0.305085 0)
(9.60198 0.318077 0)
(9.5424 0.33172 0)
(9.47945 0.346022 0)
(9.41288 0.360994 0)
(9.34244 0.376638 0)
(9.26784 0.392955 0)
(9.1888 0.409936 0)
(9.105 0.42757 0)
(9.01609 0.445834 0)
(8.9217 0.464697 0)
(8.82146 0.484118 0)
(8.71493 0.504043 0)
(8.60167 0.524403 0)
(8.4812 0.545112 0)
(8.35303 0.566068 0)
(8.21662 0.587146 0)
(8.07142 0.608199 0)
(7.91682 0.629053 0)
(7.75223 0.649507 0)
(7.57701 0.669323 0)
(7.39052 0.688227 0)
(7.1921 0.705914 0)
(6.98111 0.722041 0)
(6.75694 0.736231 0)
(6.519 0.74807 0)
(6.26678 0.757112 0)
(5.99987 0.76288 0)
(5.71803 0.764863 0)
(5.42118 0.762519 0)
(5.10949 0.755294 0)
(4.78345 0.742644 0)
(4.44397 0.724052 0)
(4.09245 0.699061 0)
(3.73088 0.667334 0)
(3.362 0.628758 0)
(2.98945 0.583533 0)
(2.618 0.532309 0)
(2.25367 0.476341 0)
(1.90371 0.417588 0)
(1.57576 0.358788 0)
(1.27715 0.303043 0)
(1.01321 0.252679 0)
(0.786389 0.209326 0)
(0.593281 0.172772 0)
(0.428054 0.140933 0)
(10.0001 0.0253326 0)
(10.0092 0.0742931 0)
(10.0261 0.11944 0)
(10.0502 0.158589 0)
(10.0797 0.190696 0)
(10.1121 0.216193 0)
(10.1451 0.236532 0)
(10.1773 0.253355 0)
(10.2083 0.267847 0)
(10.2386 0.280504 0)
(10.2688 0.291334 0)
(10.2993 0.300189 0)
(10.3301 0.306984 0)
(10.3611 0.311758 0)
(10.3921 0.31464 0)
(10.4226 0.315783 0)
(10.4527 0.315322 0)
(10.482 0.313365 0)
(10.5106 0.310006 0)
(10.5383 0.305343 0)
(10.5649 0.299487 0)
(10.5905 0.292574 0)
(10.6148 0.284753 0)
(10.6378 0.276193 0)
(10.6594 0.26707 0)
(10.6795 0.257563 0)
(10.6982 0.247847 0)
(10.7155 0.23809 0)
(10.7314 0.228442 0)
(10.746 0.219037 0)
(10.7594 0.209987 0)
(10.7716 0.20138 0)
(10.7829 0.193282 0)
(10.7933 0.185737 0)
(10.8029 0.178769 0)
(10.8119 0.172383 0)
(10.8202 0.166569 0)
(10.8281 0.161303 0)
(10.8356 0.156553 0)
(10.8427 0.152283 0)
(10.8494 0.148457 0)
(10.8559 0.145039 0)
(10.8622 0.141993 0)
(10.8682 0.139283 0)
(10.874 0.136876 0)
(10.8797 0.134738 0)
(10.8851 0.132838 0)
(10.8904 0.131147 0)
(10.8955 0.12964 0)
(10.9005 0.128294 0)
(10.9053 0.127089 0)
(10.9099 0.126008 0)
(10.9143 0.125036 0)
(10.9186 0.124162 0)
(10.9226 0.123375 0)
(10.9265 0.122668 0)
(10.9301 0.122035 0)
(10.9336 0.12147 0)
(10.9368 0.12097 0)
(10.9398 0.120533 0)
(10.9425 0.120157 0)
(10.9451 0.119843 0)
(10.9474 0.119591 0)
(10.9494 0.119401 0)
(10.9512 0.119276 0)
(10.9528 0.119216 0)
(10.9541 0.119226 0)
(10.9551 0.119307 0)
(10.9559 0.119463 0)
(10.9563 0.119698 0)
(10.9566 0.120015 0)
(10.9565 0.120419 0)
(10.9561 0.120914 0)
(10.9555 0.121504 0)
(10.9545 0.122196 0)
(10.9532 0.122994 0)
(10.9516 0.123903 0)
(10.9497 0.124931 0)
(10.9475 0.126083 0)
(10.9449 0.127366 0)
(10.9419 0.128787 0)
(10.9386 0.130353 0)
(10.9349 0.132073 0)
(10.9308 0.133956 0)
(10.9264 0.136008 0)
(10.9215 0.138242 0)
(10.9161 0.140665 0)
(10.9103 0.143289 0)
(10.9041 0.146124 0)
(10.8973 0.149183 0)
(10.8901 0.152478 0)
(10.8823 0.156022 0)
(10.8739 0.159828 0)
(10.865 0.163912 0)
(10.8555 0.168288 0)
(10.8453 0.172972 0)
(10.8344 0.177983 0)
(10.8228 0.183337 0)
(10.8105 0.189054 0)
(10.7973 0.195152 0)
(10.7833 0.201653 0)
(10.7685 0.208579 0)
(10.7527 0.215951 0)
(10.7359 0.223793 0)
(10.718 0.23213 0)
(10.699 0.240987 0)
(10.6789 0.25039 0)
(10.6575 0.260366 0)
(10.6347 0.270944 0)
(10.6105 0.282152 0)
(10.5847 0.294019 0)
(10.5573 0.306574 0)
(10.5282 0.319847 0)
(10.4972 0.333869 0)
(10.4642 0.348669 0)
(10.429 0.364274 0)
(10.3916 0.380714 0)
(10.3516 0.398014 0)
(10.309 0.416198 0)
(10.2636 0.435289 0)
(10.215 0.455304 0)
(10.1631 0.476257 0)
(10.1077 0.498157 0)
(10.0484 0.521006 0)
(9.98488 0.5448 0)
(9.91686 0.569523 0)
(9.84394 0.595151 0)
(9.76573 0.621646 0)
(9.68178 0.648955 0)
(9.59161 0.677009 0)
(9.4947 0.705718 0)
(9.39048 0.734972 0)
(9.27834 0.764634 0)
(9.1576 0.79454 0)
(9.02755 0.824498 0)
(8.88742 0.854282 0)
(8.73638 0.88363 0)
(8.57356 0.912243 0)
(8.39805 0.939777 0)
(8.20888 0.965849 0)
(8.00507 0.990025 0)
(7.78561 1.01182 0)
(7.54949 1.03071 0)
(7.29574 1.04606 0)
(7.02342 1.05722 0)
(6.73172 1.06344 0)
(6.41997 1.06397 0)
(6.08774 1.05798 0)
(5.73492 1.04468 0)
(5.36181 1.02325 0)
(4.96925 0.992956 0)
(4.5589 0.953169 0)
(4.1333 0.903406 0)
(3.69613 0.843448 0)
(3.25237 0.773561 0)
(2.80873 0.694778 0)
(2.37389 0.609178 0)
(1.95903 0.520128 0)
(1.57628 0.432508 0)
(1.23631 0.351811 0)
(10.0001 0.0208369 0)
(10.007 0.0615061 0)
(10.02 0.0997292 0)
(10.0387 0.134104 0)
(10.0623 0.163617 0)
(10.0892 0.188087 0)
(10.1177 0.2081 0)
(10.1466 0.224642 0)
(10.1751 0.238662 0)
(10.2033 0.250751 0)
(10.2314 0.261112 0)
(10.2596 0.269717 0)
(10.2882 0.276493 0)
(10.317 0.281434 0)
(10.3459 0.284615 0)
(10.3745 0.286164 0)
(10.4028 0.286216 0)
(10.4305 0.284892 0)
(10.4575 0.282296 0)
(10.4839 0.278526 0)
(10.5093 0.273686 0)
(10.5339 0.267893 0)
(10.5574 0.261276 0)
(10.5798 0.253981 0)
(10.6011 0.246157 0)
(10.6211 0.237959 0)
(10.64 0.229537 0)
(10.6576 0.221035 0)
(10.6741 0.212586 0)
(10.6895 0.204306 0)
(10.7038 0.196295 0)
(10.7172 0.188634 0)
(10.7298 0.181386 0)
(10.7415 0.174593 0)
(10.7526 0.168283 0)
(10.7631 0.162464 0)
(10.7731 0.157136 0)
(10.7827 0.152283 0)
(10.7918 0.147885 0)
(10.8007 0.143918 0)
(10.8093 0.140352 0)
(10.8177 0.13716 0)
(10.8259 0.13431 0)
(10.8339 0.131775 0)
(10.8417 0.129525 0)
(10.8495 0.12753 0)
(10.8571 0.125763 0)
(10.8646 0.1242 0)
(10.872 0.122817 0)
(10.8793 0.121594 0)
(10.8865 0.120513 0)
(10.8936 0.119558 0)
(10.9005 0.118716 0)
(10.9074 0.117975 0)
(10.9142 0.117328 0)
(10.9208 0.116765 0)
(10.9273 0.116281 0)
(10.9337 0.115872 0)
(10.9399 0.115534 0)
(10.946 0.115265 0)
(10.952 0.115064 0)
(10.9578 0.11493 0)
(10.9635 0.114863 0)
(10.969 0.114865 0)
(10.9743 0.114937 0)
(10.9795 0.11508 0)
(10.9845 0.115298 0)
(10.9893 0.115594 0)
(10.994 0.115971 0)
(10.9985 0.116432 0)
(11.0027 0.116981 0)
(11.0068 0.117624 0)
(11.0107 0.118363 0)
(11.0144 0.119206 0)
(11.0179 0.120156 0)
(11.0212 0.121219 0)
(11.0242 0.122402 0)
(11.027 0.123711 0)
(11.0296 0.125153 0)
(11.032 0.126735 0)
(11.0341 0.128465 0)
(11.0359 0.13035 0)
(11.0375 0.1324 0)
(11.0388 0.134623 0)
(11.0398 0.13703 0)
(11.0406 0.13963 0)
(11.041 0.142435 0)
(11.0411 0.145456 0)
(11.0409 0.148704 0)
(11.0403 0.152193 0)
(11.0394 0.155937 0)
(11.0381 0.159949 0)
(11.0365 0.164246 0)
(11.0344 0.168842 0)
(11.0319 0.173756 0)
(11.029 0.179004 0)
(11.0256 0.184607 0)
(11.0217 0.190583 0)
(11.0173 0.196954 0)
(11.0123 0.203742 0)
(11.0068 0.21097 0)
(11.0007 0.218663 0)
(10.9939 0.226846 0)
(10.9865 0.235547 0)
(10.9784 0.244792 0)
(10.9695 0.254612 0)
(10.9599 0.265036 0)
(10.9494 0.276098 0)
(10.938 0.28783 0)
(10.9257 0.300266 0)
(10.9123 0.313442 0)
(10.8979 0.327394 0)
(10.8823 0.342159 0)
(10.8655 0.357775 0)
(10.8474 0.374281 0)
(10.8279 0.391716 0)
(10.8068 0.410118 0)
(10.7842 0.429526 0)
(10.7598 0.449977 0)
(10.7335 0.471508 0)
(10.7051 0.494153 0)
(10.6746 0.517946 0)
(10.6416 0.542914 0)
(10.6061 0.569083 0)
(10.5677 0.596471 0)
(10.5263 0.625092 0)
(10.4815 0.654949 0)
(10.433 0.686039 0)
(10.3805 0.718343 0)
(10.3237 0.751834 0)
(10.262 0.786463 0)
(10.195 0.822166 0)
(10.1223 0.858858 0)
(10.0431 0.896432 0)
(9.95686 0.934751 0)
(9.86289 0.973654 0)
(9.7604 1.01294 0)
(9.64853 1.05238 0)
(9.52634 1.09169 0)
(9.39281 1.13055 0)
(9.24685 1.16857 0)
(9.08727 1.20534 0)
(8.9128 1.24035 0)
(8.72211 1.27304 0)
(8.51378 1.30279 0)
(8.28639 1.32888 0)
(8.03847 1.35054 0)
(7.76856 1.36691 0)
(7.4753 1.37708 0)
(7.15738 1.38002 0)
(6.81376 1.37466 0)
(6.44368 1.35985 0)
(6.04685 1.33444 0)
(5.62361 1.29725 0)
(5.17504 1.24723 0)
(4.70341 1.18358 0)
(4.21239 1.10585 0)
(3.7075 1.01409 0)
(3.19638 0.909176 0)
(2.68924 0.793442 0)
(10.0001 0.0174419 0)
(10.0056 0.0516768 0)
(10.016 0.0842462 0)
(10.0311 0.114219 0)
(10.0503 0.14079 0)
(10.0729 0.163586 0)
(10.0976 0.18274 0)
(10.1233 0.198761 0)
(10.1494 0.212284 0)
(10.1755 0.223832 0)
(10.2017 0.233689 0)
(10.2281 0.241935 0)
(10.2547 0.248551 0)
(10.2816 0.253525 0)
(10.3085 0.256899 0)
(10.3354 0.258766 0)
(10.3621 0.259243 0)
(10.3883 0.258448 0)
(10.4139 0.25649 0)
(10.4389 0.253465 0)
(10.4632 0.249473 0)
(10.4867 0.244618 0)
(10.5093 0.239015 0)
(10.531 0.232786 0)
(10.5516 0.226064 0)
(10.5712 0.218979 0)
(10.5897 0.211664 0)
(10.6072 0.204241 0)
(10.6236 0.196827 0)
(10.6391 0.189524 0)
(10.6537 0.182422 0)
(10.6674 0.175593 0)
(10.6803 0.169095 0)
(10.6925 0.162971 0)
(10.704 0.157248 0)
(10.715 0.151941 0)
(10.7255 0.147053 0)
(10.7356 0.142578 0)
(10.7454 0.138503 0)
(10.7548 0.134811 0)
(10.764 0.131482 0)
(10.7729 0.128491 0)
(10.7817 0.125815 0)
(10.7902 0.123428 0)
(10.7987 0.121306 0)
(10.807 0.119424 0)
(10.8152 0.117759 0)
(10.8233 0.116288 0)
(10.8313 0.114993 0)
(10.8392 0.113854 0)
(10.847 0.112856 0)
(10.8548 0.111984 0)
(10.8624 0.111226 0)
(10.87 0.110573 0)
(10.8775 0.110016 0)
(10.8849 0.109548 0)
(10.8922 0.109162 0)
(10.8994 0.108855 0)
(10.9066 0.108624 0)
(10.9136 0.108465 0)
(10.9205 0.108379 0)
(10.9273 0.108364 0)
(10.934 0.108421 0)
(10.9406 0.108551 0)
(10.9471 0.108754 0)
(10.9535 0.109034 0)
(10.9597 0.109392 0)
(10.9658 0.109833 0)
(10.9718 0.110358 0)
(10.9777 0.110971 0)
(10.9834 0.111678 0)
(10.989 0.112482 0)
(10.9944 0.113387 0)
(10.9997 0.1144 0)
(11.0049 0.115526 0)
(11.0099 0.11677 0)
(11.0147 0.11814 0)
(11.0194 0.119641 0)
(11.0239 0.12128 0)
(11.0282 0.123067 0)
(11.0324 0.125007 0)
(11.0364 0.127111 0)
(11.0402 0.129387 0)
(11.0438 0.131845 0)
(11.0472 0.134494 0)
(11.0503 0.137346 0)
(11.0533 0.140412 0)
(11.0561 0.143705 0)
(11.0586 0.147236 0)
(11.0609 0.151019 0)
(11.0629 0.15507 0)
(11.0646 0.159402 0)
(11.0661 0.164033 0)
(11.0674 0.168978 0)
(11.0683 0.174257 0)
(11.0689 0.179888 0)
(11.0692 0.18589 0)
(11.0691 0.192286 0)
(11.0688 0.199098 0)
(11.068 0.206349 0)
(11.0669 0.214064 0)
(11.0653 0.222269 0)
(11.0634 0.230991 0)
(11.061 0.240259 0)
(11.0581 0.250105 0)
(11.0548 0.260558 0)
(11.0509 0.271654 0)
(11.0465 0.283425 0)
(11.0415 0.29591 0)
(11.0359 0.309145 0)
(11.0297 0.323169 0)
(11.0228 0.338024 0)
(11.0151 0.35375 0)
(11.0067 0.370393 0)
(10.9975 0.387996 0)
(10.9874 0.406604 0)
(10.9764 0.426264 0)
(10.9644 0.447023 0)
(10.9513 0.468928 0)
(10.937 0.492026 0)
(10.9215 0.516364 0)
(10.9046 0.541987 0)
(10.8863 0.56894 0)
(10.8664 0.597264 0)
(10.8447 0.626999 0)
(10.8212 0.658179 0)
(10.7955 0.690833 0)
(10.7676 0.724985 0)
(10.7372 0.760649 0)
(10.7039 0.797831 0)
(10.6676 0.836525 0)
(10.6279 0.876711 0)
(10.5844 0.918356 0)
(10.5366 0.961405 0)
(10.4841 1.00579 0)
(10.4263 1.0514 0)
(10.3626 1.09813 0)
(10.2923 1.14581 0)
(10.2147 1.19425 0)
(10.1287 1.24321 0)
(10.0336 1.2924 0)
(9.92803 1.34149 0)
(9.81098 1.39009 0)
(9.68106 1.43772 0)
(9.53685 1.48385 0)
(9.37676 1.52787 0)
(9.19913 1.56908 0)
(9.00215 1.60665 0)
(8.78393 1.63971 0)
(8.5425 1.66724 0)
(8.27588 1.68815 0)
(7.98208 1.7012 0)
(7.65925 1.70508 0)
(7.30569 1.69836 0)
(6.91997 1.67952 0)
(6.50122 1.64699 0)
(6.04927 1.59924 0)
(5.56493 1.53479 0)
(5.05021 1.45242 0)
(4.50906 1.35149 0)
(10 0.0147645 0)
(10.0046 0.0438384 0)
(10.0132 0.0717487 0)
(10.0257 0.0978086 0)
(10.0419 0.121428 0)
(10.0611 0.142215 0)
(10.0826 0.160096 0)
(10.1056 0.175287 0)
(10.1293 0.188166 0)
(10.1535 0.19912 0)
(10.1779 0.208431 0)
(10.2025 0.216234 0)
(10.2274 0.222569 0)
(10.2526 0.227444 0)
(10.278 0.230885 0)
(10.3033 0.232959 0)
(10.3285 0.23376 0)
(10.3533 0.233391 0)
(10.3778 0.231956 0)
(10.4016 0.229553 0)
(10.4249 0.226274 0)
(10.4474 0.222215 0)
(10.4692 0.217478 0)
(10.4901 0.212171 0)
(10.5102 0.206405 0)
(10.5293 0.200296 0)
(10.5475 0.193955 0)
(10.5648 0.187491 0)
(10.5812 0.181004 0)
(10.5966 0.174585 0)
(10.6112 0.168311 0)
(10.6251 0.162249 0)
(10.6382 0.156452 0)
(10.6506 0.15096 0)
(10.6625 0.145802 0)
(10.6738 0.140995 0)
(10.6846 0.136545 0)
(10.695 0.132454 0)
(10.705 0.128713 0)
(10.7147 0.125311 0)
(10.7241 0.122232 0)
(10.7333 0.119458 0)
(10.7423 0.11697 0)
(10.7511 0.114746 0)
(10.7598 0.112765 0)
(10.7683 0.111008 0)
(10.7767 0.109454 0)
(10.785 0.108084 0)
(10.7931 0.106882 0)
(10.8012 0.105831 0)
(10.8092 0.104916 0)
(10.8171 0.104127 0)
(10.8249 0.103451 0)
(10.8327 0.102879 0)
(10.8404 0.102404 0)
(10.8479 0.102019 0)
(10.8554 0.101719 0)
(10.8628 0.101499 0)
(10.8702 0.101357 0)
(10.8774 0.101291 0)
(10.8846 0.101299 0)
(10.8916 0.101381 0)
(10.8986 0.101538 0)
(10.9055 0.101769 0)
(10.9122 0.102077 0)
(10.9189 0.102464 0)
(10.9255 0.102933 0)
(10.932 0.103485 0)
(10.9383 0.104125 0)
(10.9446 0.104857 0)
(10.9507 0.105684 0)
(10.9568 0.106611 0)
(10.9627 0.107643 0)
(10.9685 0.108786 0)
(10.9742 0.110045 0)
(10.9797 0.111425 0)
(10.9851 0.112935 0)
(10.9904 0.11458 0)
(10.9956 0.116368 0)
(11.0006 0.118307 0)
(11.0055 0.120405 0)
(11.0103 0.122672 0)
(11.0148 0.125115 0)
(11.0193 0.127746 0)
(11.0236 0.130574 0)
(11.0277 0.133611 0)
(11.0316 0.136869 0)
(11.0354 0.140359 0)