/*--------------------------------*- C++ -*----------------------------------*\
| =========                 |                                                 |
| \\      /  F ield         | OpenFOAM: The Open Source CFD Toolbox           |
|  \\    /   O peration     | Version:  2306                                  |
|   \\  /    A nd           | Website:  www.openfoam.com                      |
|    \\/     M anipulation  |                                                 |
\*---------------------------------------------------------------------------*/
FoamFile
{
    version     2.0;
    format      ascii;
    arch        "LSB;label=32;scalar=64";
    class       volScalarField;
    location    "0.125";
    object      p;
}
// * * * * * * * * * * * * * * * * * * * * * * * * * * * * * * * * * * * * * //

dimensions      [0 2 -2 0 0 0 0];

internalField   nonuniform List<scalar> 
17600
(
414.643
412.599
410.821
409.591
408.828
408.321
407.904
407.496
407.079
406.655
406.235
405.822
405.419
405.022
404.63
404.243
403.862
403.49
403.128
402.782
402.453
402.146
401.862
401.603
401.37
401.162
400.979
400.82
400.683
400.564
400.461
400.371
400.292
400.221
400.156
400.094
400.036
399.978
399.92
399.862
399.802
399.742
399.679
399.615
399.549
399.482
399.413
399.343
399.272
399.201
399.129
399.056
398.983
398.91
398.837
398.765
398.692
398.621
398.55
398.479
398.41
398.341
398.273
398.207
398.141
398.076
398.013
397.951
397.89
397.83
397.772
397.715
397.66
397.606
397.554
397.503
397.454
397.407
397.362
397.318
397.276
397.237
397.199
397.164
397.131
397.1
397.072
397.046
397.023
397.003
396.985
396.971
396.96
396.952
396.947
396.946
396.949
396.956
396.967
396.982
397.001
397.025
397.054
397.088
397.126
397.171
397.22
397.276
397.337
397.404
397.477
397.557
397.644
397.737
397.837
397.944
398.058
398.178
398.306
398.441
398.583
398.732
398.888
399.05
399.218
399.393
399.573
399.758
399.947
400.14
400.337
400.535
400.735
400.935
401.135
401.332
401.527
401.717
401.901
402.079
402.249
402.411
402.563
402.706
402.837
402.958
403.068
403.165
403.251
403.326
403.389
403.444
403.489
403.527
403.556
403.577
403.588
403.587
403.572
403.545
411.913
411.144
410.217
409.353
408.663
408.14
407.72
407.337
406.957
406.569
406.174
405.78
405.39
405.006
404.626
404.252
403.884
403.525
403.176
402.841
402.522
402.223
401.944
401.689
401.457
401.249
401.065
400.903
400.761
400.637
400.529
400.434
400.35
400.274
400.203
400.137
400.074
400.012
399.95
399.889
399.827
399.763
399.699
399.633
399.566
399.497
399.427
399.356
399.285
399.212
399.139
399.066
398.993
398.919
398.846
398.773
398.701
398.629
398.558
398.487
398.417
398.348
398.28
398.213
398.148
398.083
398.019
397.957
397.896
397.836
397.778
397.721
397.665
397.612
397.559
397.508
397.459
397.412
397.367
397.323
397.281
397.242
397.204
397.169
397.135
397.105
397.076
397.051
397.028
397.007
396.99
396.976
396.964
396.956
396.952
396.951
396.954
396.961
396.972
396.987
397.006
397.031
397.06
397.093
397.132
397.177
397.227
397.282
397.344
397.412
397.486
397.566
397.653
397.747
397.847
397.955
398.07
398.191
398.32
398.456
398.599
398.749
398.906
399.07
399.24
399.415
399.597
399.783
399.974
400.169
400.367
400.567
400.768
400.969
401.169
401.367
401.561
401.75
401.933
402.109
402.277
402.436
402.585
402.725
402.854
402.973
403.081
403.178
403.263
403.336
403.398
403.45
403.492
403.526
403.553
403.573
403.585
403.587
403.575
403.551
410.609
410.26
409.73
409.118
408.526
408.012
407.579
407.199
406.838
406.477
406.109
405.737
405.365
404.998
404.635
404.279
403.93
403.589
403.259
402.941
402.637
402.35
402.081
401.832
401.603
401.395
401.207
401.039
400.89
400.757
400.639
400.533
400.438
400.351
400.271
400.196
400.125
400.056
399.987
399.92
399.852
399.784
399.716
399.647
399.577
399.507
399.435
399.363
399.291
399.218
399.144
399.071
398.997
398.924
398.85
398.777
398.705
398.633
398.561
398.49
398.421
398.351
398.283
398.216
398.15
398.085
398.022
397.959
397.898
397.838
397.779
397.722
397.666
397.612
397.559
397.508
397.459
397.411
397.365
397.321
397.279
397.239
397.201
397.165
397.131
397.1
397.071
397.045
397.021
397
396.982
396.967
396.955
396.947
396.942
396.94
396.942
396.948
396.958
396.972
396.991
397.014
397.042
397.075
397.113
397.156
397.205
397.259
397.319
397.386
397.459
397.538
397.623
397.716
397.815
397.922
398.035
398.156
398.283
398.419
398.561
398.71
398.866
399.03
399.199
399.375
399.557
399.744
399.936
400.133
400.332
400.534
400.738
400.942
401.146
401.348
401.547
401.741
401.93
402.112
402.286
402.451
402.605
402.749
402.881
403
403.107
403.2
403.281
403.351
403.409
403.459
403.5
403.534
403.561
403.583
403.598
403.604
403.597
403.574
409.706
409.514
409.181
408.745
408.27
407.814
407.403
407.035
406.692
406.355
406.015
405.67
405.322
404.976
404.633
404.297
403.968
403.646
403.335
403.034
402.745
402.471
402.212
401.97
401.746
401.54
401.351
401.18
401.026
400.886
400.759
400.645
400.54
400.444
400.355
400.271
400.191
400.114
400.038
399.964
399.891
399.818
399.746
399.673
399.6
399.527
399.453
399.379
399.305
399.231
399.156
399.081
399.007
398.933
398.859
398.785
398.712
398.639
398.567
398.496
398.426
398.356
398.288
398.22
398.153
398.088
398.024
397.961
397.899
397.838
397.779
397.721
397.665
397.61
397.557
397.505
397.455
397.406
397.36
397.315
397.272
397.231
397.192
397.155
397.12
397.088
397.058
397.03
397.006
396.983
396.964
396.948
396.934
396.924
396.917
396.914
396.914
396.919
396.927
396.939
396.955
396.976
397.002
397.032
397.067
397.108
397.154
397.206
397.263
397.326
397.396
397.471
397.554
397.642
397.738
397.841
397.95
398.067
398.191
398.322
398.461
398.607
398.759
398.919
399.086
399.259
399.438
399.623
399.814
400.009
400.208
400.411
400.616
400.822
401.029
401.236
401.44
401.641
401.837
402.028
402.211
402.386
402.551
402.706
402.849
402.98
403.099
403.204
403.295
403.373
403.436
403.485
403.522
403.548
403.569
403.588
403.609
403.628
403.634
403.616
409.019
408.895
408.667
408.35
407.978
407.593
407.222
406.877
406.552
406.236
405.92
405.6
405.276
404.951
404.629
404.312
404.001
403.697
403.402
403.116
402.841
402.579
402.33
402.095
401.876
401.672
401.484
401.311
401.152
401.007
400.875
400.753
400.64
400.536
400.438
400.346
400.259
400.174
400.092
400.012
399.933
399.856
399.779
399.703
399.626
399.55
399.474
399.398
399.322
399.246
399.17
399.094
399.018
398.943
398.868
398.793
398.72
398.646
398.574
398.502
398.431
398.361
398.292
398.224
398.156
398.09
398.026
397.962
397.899
397.838
397.778
397.719
397.662
397.606
397.552
397.499
397.448
397.399
397.351
397.305
397.261
397.219
397.178
397.14
397.104
397.07
397.038
397.009
396.983
396.959
396.937
396.919
396.903
396.891
396.881
396.876
396.873
396.874
396.879
396.888
396.901
396.919
396.941
396.967
396.998
397.035
397.076
397.123
397.175
397.233
397.297
397.367
397.443
397.526
397.615
397.711
397.814
397.924
398.041
398.165
398.296
398.434
398.579
398.731
398.89
399.056
399.228
399.406
399.589
399.779
399.972
400.17
400.371
400.575
400.78
400.986
401.191
401.395
401.596
401.793
401.985
402.171
402.349
402.52
402.68
402.831
402.97
403.096
403.208
403.306
403.389
403.458
403.514
403.559
403.595
403.624
403.647
403.662
403.664
403.648
408.472
408.382
408.216
407.978
407.686
407.366
407.041
406.724
406.42
406.123
405.828
405.529
405.228
404.924
404.621
404.322
404.027
403.739
403.459
403.187
402.924
402.672
402.432
402.204
401.989
401.788
401.601
401.427
401.265
401.116
400.978
400.851
400.732
400.62
400.516
400.417
400.322
400.232
400.144
400.058
399.975
399.893
399.812
399.732
399.652
399.573
399.495
399.416
399.338
399.26
399.183
399.106
399.029
398.953
398.877
398.802
398.727
398.653
398.58
398.507
398.436
398.365
398.295
398.226
398.159
398.092
398.026
397.962
397.898
397.836
397.775
397.716
397.658
397.601
397.546
397.492
397.44
397.389
397.34
397.292
397.247
397.203
397.161
397.121
397.083
397.048
397.014
396.983
396.954
396.928
396.904
396.883
396.864
396.849
396.837
396.828
396.822
396.819
396.821
396.825
396.834
396.847
396.864
396.886
396.912
396.942
396.978
397.018
397.064
397.115
397.172
397.234
397.302
397.377
397.457
397.544
397.637
397.737
397.843
397.956
398.076
398.203
398.336
398.476
398.623
398.776
398.936
399.101
399.273
399.45
399.632
399.819
400.009
400.203
400.4
400.598
400.798
400.998
401.198
401.395
401.591
401.783
401.97
402.152
402.327
402.495
402.654
402.804
402.943
403.071
403.187
403.29
403.381
403.459
403.527
403.584
403.632
403.673
403.699
403.692
408.023
407.955
407.827
407.641
407.408
407.142
406.859
406.574
406.292
406.014
405.737
405.458
405.177
404.892
404.608
404.325
404.046
403.772
403.505
403.245
402.993
402.75
402.518
402.296
402.086
401.888
401.702
401.527
401.364
401.212
401.07
400.938
400.814
400.697
400.586
400.481
400.381
400.285
400.192
400.102
400.014
399.928
399.843
399.76
399.677
399.595
399.514
399.434
399.354
399.275
399.196
399.117
399.039
398.962
398.885
398.809
398.734
398.659
398.585
398.512
398.439
398.368
398.298
398.228
398.16
398.092
398.026
397.96
397.896
397.833
397.772
397.711
397.652
397.594
397.538
397.483
397.429
397.377
397.326
397.278
397.23
397.185
397.141
397.1
397.06
397.022
396.986
396.953
396.921
396.893
396.866
396.842
396.821
396.802
396.786
396.774
396.764
396.757
396.754
396.755
396.759
396.766
396.778
396.794
396.813
396.838
396.866
396.9
396.938
396.981
397.029
397.082
397.141
397.206
397.276
397.351
397.433
397.521
397.615
397.715
397.821
397.933
398.052
398.177
398.308
398.445
398.588
398.737
398.891
399.051
399.216
399.386
399.559
399.737
399.918
400.102
400.289
400.477
400.666
400.855
401.045
401.234
401.421
401.606
401.788
401.966
402.139
402.308
402.47
402.625
402.772
402.911
403.041
403.162
403.274
403.376
403.467
403.543
403.595
403.611
407.649
407.595
407.492
407.342
407.151
406.927
406.682
406.427
406.168
405.909
405.649
405.388
405.124
404.857
404.589
404.322
404.057
403.797
403.541
403.292
403.05
402.816
402.591
402.375
402.169
401.974
401.789
401.615
401.451
401.297
401.152
401.016
400.887
400.766
400.65
400.541
400.436
400.335
400.237
400.143
400.051
399.961
399.873
399.786
399.701
399.617
399.533
399.451
399.369
399.288
399.208
399.128
399.049
398.97
398.893
398.816
398.739
398.664
398.589
398.515
398.442
398.37
398.299
398.229
398.159
398.091
398.024
397.958
397.893
397.829
397.766
397.705
397.644
397.586
397.528
397.472
397.417
397.363
397.311
397.261
397.212
397.165
397.12
397.076
397.034
396.994
396.956
396.92
396.886
396.855
396.825
396.798
396.774
396.752
396.732
396.716
396.702
396.691
396.683
396.679
396.678
396.68
396.686
396.695
396.709
396.726
396.747
396.773
396.803
396.837
396.876
396.92
396.969
397.022
397.081
397.145
397.214
397.288
397.368
397.454
397.545
397.641
397.744
397.851
397.964
398.083
398.207
398.336
398.47
398.61
398.754
398.902
399.054
399.211
399.371
399.534
399.7
399.869
400.04
400.213
400.388
400.563
400.74
400.917
401.094
401.271
401.448
401.623
401.797
401.97
402.14
402.307
402.47
402.629
402.782
402.929
403.064
403.183
403.277
403.334
407.332
407.288
407.203
407.078
406.918
406.727
406.513
406.285
406.048
405.808
405.565
405.32
405.071
404.82
404.568
404.315
404.063
403.814
403.57
403.331
403.098
402.872
402.653
402.443
402.241
402.049
401.866
401.692
401.527
401.372
401.224
401.085
400.953
400.828
400.708
400.594
400.485
400.38
400.279
400.181
400.085
399.992
399.901
399.811
399.723
399.637
399.551
399.467
399.383
399.301
399.219
399.138
399.058
398.978
398.9
398.822
398.744
398.668
398.593
398.518
398.444
398.371
398.299
398.228
398.158
398.089
398.021
397.954
397.888
397.823
397.76
397.697
397.636
397.576
397.517
397.459
397.403
397.348
397.295
397.243
397.192
397.143
397.096
397.05
397.006
396.964
396.924
396.885
396.849
396.814
396.782
396.752
396.724
396.698
396.675
396.655
396.637
396.621
396.609
396.599
396.593
396.589
396.589
396.592
396.599
396.609
396.623
396.641
396.662
396.688
396.717
396.751
396.789
396.831
396.878
396.93
396.986
397.046
397.112
397.182
397.257
397.337
397.422
397.511
397.605
397.704
397.808
397.915
398.028
398.144
398.265
398.39
398.518
398.65
398.785
398.924
399.065
399.21
399.357
399.507
399.659
399.813
399.971
400.13
400.292
400.457
400.624
400.794
400.966
401.142
401.32
401.5
401.682
401.866
402.049
402.229
402.402
402.562
402.7
402.804
407.063
407.025
406.953
406.847
406.709
406.544
406.356
406.151
405.935
405.713
405.486
405.255
405.021
404.784
404.544
404.304
404.065
403.827
403.592
403.362
403.137
402.918
402.706
402.5
402.303
402.113
401.932
401.759
401.594
401.437
401.288
401.147
401.012
400.883
400.761
400.643
400.53
400.422
400.317
400.215
400.117
400.02
399.926
399.834
399.744
399.655
399.568
399.482
399.396
399.312
399.229
399.147
399.065
398.985
398.905
398.826
398.748
398.671
398.595
398.52
398.445
398.371
398.299
398.227
398.156
398.086
398.017
397.949
397.882
397.817
397.752
397.688
397.626
397.565
397.504
397.446
397.388
397.332
397.277
397.223
397.171
397.12
397.071
397.023
396.977
396.933
396.89
396.849
396.81
396.772
396.737
396.703
396.672
396.643
396.616
396.591
396.569
396.549
396.532
396.517
396.505
396.496
396.49
396.486
396.486
396.489
396.495
396.504
396.517
396.534
396.554
396.577
396.604
396.635
396.67
396.709
396.752
396.798
396.849
396.904
396.963
397.025
397.092
397.163
397.237
397.316
397.398
397.484
397.573
397.666
397.763
397.862
397.965
398.07
398.179
398.29
398.404
398.521
398.641
398.763
398.888
399.016
399.148
399.282
399.421
399.564
399.712
399.865
400.024
400.188
400.36
400.538
400.722
400.912
401.108
401.305
401.501
401.69
401.865
402.016
406.833
406.8
406.738
406.645
406.525
406.379
406.212
406.027
405.83
405.624
405.411
405.194
404.972
404.748
404.521
404.292
404.063
403.835
403.61
403.388
403.17
402.957
402.75
402.549
402.355
402.168
401.989
401.816
401.652
401.494
401.344
401.201
401.064
400.932
400.807
400.687
400.571
400.459
400.351
400.247
400.145
400.046
399.95
399.856
399.763
399.672
399.583
399.495
399.408
399.323
399.238
399.155
399.072
398.991
398.91
398.83
398.752
398.674
398.596
398.52
398.445
398.37
398.297
398.224
398.153
398.082
398.012
397.943
397.875
397.809
397.743
397.678
397.615
397.552
397.491
397.431
397.372
397.314
397.257
397.202
397.148
397.096
397.044
396.995
396.946
396.899
396.854
396.811
396.769
396.728
396.69
396.653
396.618
396.585
396.555
396.526
396.499
396.475
396.452
396.432
396.415
396.4
396.387
396.378
396.37
396.366
396.364
396.365
396.369
396.377
396.387
396.4
396.416
396.436
396.459
396.485
396.514
396.546
396.582
396.621
396.663
396.709
396.758
396.809
396.864
396.922
396.983
397.046
397.112
397.181
397.252
397.326
397.402
397.48
397.561
397.644
397.729
397.816
397.905
397.998
398.092
398.19
398.292
398.398
398.508
398.623
398.744
398.872
399.007
399.151
399.303
399.465
399.637
399.819
400.01
400.208
400.411
400.615
400.814
401.002
406.636
406.608
406.552
406.471
406.364
406.233
406.083
405.915
405.733
405.542
405.342
405.137
404.927
404.714
404.497
404.278
404.059
403.84
403.623
403.408
403.196
402.989
402.787
402.59
402.4
402.215
402.037
401.866
401.701
401.544
401.393
401.248
401.109
400.976
400.848
400.725
400.607
400.492
400.382
400.275
400.171
400.07
399.971
399.874
399.78
399.687
399.596
399.507
399.419
399.332
399.246
399.161
399.078
398.995
398.914
398.833
398.754
398.675
398.597
398.52
398.444
398.368
398.294
398.221
398.148
398.077
398.006
397.936
397.868
397.8
397.733
397.667
397.602
397.539
397.476
397.415
397.354
397.295
397.237
397.18
397.124
397.07
397.016
396.964
396.914
396.865
396.817
396.771
396.726
396.683
396.641
396.601
396.563
396.526
396.491
396.458
396.427
396.398
396.371
396.346
396.323
396.302
396.283
396.266
396.252
396.24
396.231
396.223
396.219
396.217
396.217
396.22
396.225
396.233
396.244
396.257
396.273
396.291
396.312
396.335
396.361
396.389
396.42
396.452
396.487
396.524
396.563
396.604
396.647
396.691
396.737
396.785
396.834
396.884
396.936
396.989
397.044
397.1
397.158
397.219
397.281
397.347
397.416
397.488
397.566
397.649
397.738
397.835
397.94
398.055
398.18
398.317
398.466
398.627
398.801
398.987
399.184
399.388
399.599
399.812
406.469
406.444
406.394
406.321
406.224
406.106
405.968
405.814
405.646
405.467
405.28
405.086
404.886
404.682
404.474
404.265
404.054
403.842
403.632
403.423
403.218
403.016
402.818
402.625
402.437
402.255
402.078
401.908
401.744
401.586
401.434
401.288
401.148
401.013
400.883
400.758
400.638
400.522
400.409
400.3
400.193
400.09
399.989
399.891
399.795
399.701
399.608
399.517
399.428
399.339
399.253
399.167
399.082
398.999
398.916
398.835
398.754
398.675
398.596
398.518
398.442
398.366
398.29
398.216
398.143
398.07
397.999
397.928
397.859
397.79
397.722
397.655
397.589
397.524
397.46
397.397
397.335
397.275
397.215
397.156
397.099
397.042
396.987
396.933
396.88
396.829
396.778
396.73
396.682
396.636
396.591
396.547
396.506
396.465
396.426
396.389
396.354
396.32
396.287
396.257
396.228
396.201
396.176
396.153
396.132
396.112
396.095
396.079
396.066
396.055
396.045
396.037
396.032
396.028
396.027
396.027
396.029
396.033
396.039
396.047
396.056
396.067
396.079
396.093
396.108
396.124
396.141
396.159
396.178
396.198
396.218
396.239
396.261
396.283
396.305
396.328
396.352
396.377
396.402
396.429
396.458
396.489
396.523
396.561
396.603
396.651
396.705
396.767
396.837
396.918
397.01
397.114
397.233
397.366
397.514
397.678
397.858
398.053
398.263
398.488
406.329
406.305
406.26
406.193
406.105
405.996
405.869
405.726
405.57
405.402
405.224
405.039
404.848
404.653
404.453
404.251
404.047
403.843
403.639
403.436
403.235
403.037
402.843
402.653
402.468
402.288
402.113
401.944
401.78
401.622
401.47
401.323
401.181
401.045
400.914
400.787
400.665
400.547
400.432
400.321
400.213
400.108
400.005
399.905
399.808
399.712
399.618
399.526
399.435
399.346
399.258
399.171
399.086
399.001
398.918
398.836
398.754
398.674
398.595
398.516
398.438
398.362
398.286
398.211
398.137
398.063
397.991
397.919
397.849
397.779
397.71
397.642
397.575
397.509
397.443
397.379
397.316
397.253
397.192
397.132
397.072
397.014
396.957
396.9
396.845
396.791
396.739
396.687
396.637
396.587
396.539
396.493
396.447
396.403
396.36
396.319
396.278
396.24
396.202
396.167
396.132
396.099
396.068
396.038
396.01
395.983
395.958
395.934
395.911
395.891
395.871
395.853
395.837
395.822
395.808
395.795
395.784
395.774
395.765
395.756
395.749
395.742
395.737
395.731
395.726
395.721
395.716
395.712
395.707
395.702
395.696
395.691
395.684
395.678
395.67
395.662
395.654
395.646
395.639
395.631
395.625
395.62
395.618
395.618
395.623
395.632
395.648
395.671
395.704
395.746
395.8
395.868
395.951
396.05
396.166
396.302
396.457
396.634
396.834
397.058
406.212
406.19
406.148
406.086
406.004
405.904
405.785
405.651
405.504
405.345
405.176
404.999
404.816
404.627
404.434
404.239
404.041
403.842
403.643
403.445
403.248
403.054
402.864
402.676
402.493
402.315
402.141
401.973
401.81
401.652
401.499
401.352
401.209
401.072
400.939
400.811
400.687
400.568
400.451
400.339
400.229
400.123
400.019
399.917
399.818
399.721
399.626
399.533
399.441
399.351
399.262
399.174
399.088
399.003
398.918
398.835
398.753
398.672
398.592
398.513
398.434
398.357
398.28
398.204
398.129
398.055
397.982
397.909
397.838
397.767
397.697
397.628
397.559
397.492
397.425
397.36
397.295
397.231
397.168
397.106
397.045
396.984
396.925
396.867
396.809
396.753
396.698
396.643
396.59
396.538
396.486
396.436
396.387
396.339
396.292
396.247
396.202
396.159
396.116
396.075
396.035
395.996
395.958
395.922
395.886
395.852
395.819
395.786
395.755
395.725
395.696
395.668
395.64
395.613
395.588
395.562
395.537
395.513
395.489
395.465
395.441
395.417
395.393
395.368
395.343
395.317
395.291
395.263
395.234
395.204
395.173
395.14
395.105
395.069
395.032
394.992
394.952
394.91
394.868
394.825
394.782
394.74
394.699
394.66
394.625
394.594
394.569
394.551
394.541
394.542
394.555
394.582
394.625
394.686
394.766
394.868
394.993
395.145
395.325
395.536
406.117
406.097
406.057
405.999
405.922
405.827
405.716
405.589
405.449
405.297
405.135
404.965
404.788
404.605
404.418
404.227
404.035
403.84
403.646
403.452
403.259
403.068
402.88
402.695
402.514
402.337
402.164
401.996
401.833
401.676
401.523
401.375
401.232
401.094
400.96
400.831
400.706
400.585
400.467
400.353
400.242
400.134
400.029
399.927
399.826
399.728
399.632
399.538
399.445
399.354
399.264
399.176
399.088
399.002
398.918
398.834
398.751
398.669
398.588
398.508
398.429
398.351
398.273
398.197
398.121
398.046
397.972
397.898
397.826
397.754
397.683
397.613
397.543
397.475
397.407
397.34
397.273
397.208
397.143
397.079
397.016
396.954
396.893
396.832
396.773
396.714
396.656
396.599
396.542
396.487
396.433
396.379
396.326
396.275
396.224
396.174
396.124
396.076
396.029
395.982
395.936
395.892
395.848
395.804
395.762
395.72
395.679
395.638
395.598
395.559
395.52
395.481
395.443
395.404
395.366
395.328
395.29
395.251
395.212
395.173
395.132
395.091
395.048
395.005
394.96
394.913
394.864
394.813
394.761
394.705
394.648
394.587
394.524
394.458
394.39
394.319
394.245
394.169
394.091
394.011
393.93
393.848
393.767
393.688
393.61
393.536
393.467
393.405
393.351
393.307
393.275
393.258
393.257
393.275
393.314
393.378
393.468
393.588
393.741
393.93
406.043
406.023
405.986
405.931
405.857
405.767
405.66
405.539
405.404
405.258
405.102
404.937
404.765
404.587
404.404
404.218
404.029
403.839
403.647
403.456
403.266
403.078
402.892
402.709
402.529
402.353
402.182
402.014
401.852
401.694
401.541
401.393
401.249
401.111
400.976
400.846
400.72
400.598
400.479
400.364
400.252
400.143
400.037
399.934
399.832
399.733
399.636
399.541
399.447
399.355
399.265
399.176
399.088
399.001
398.916
398.831
398.748
398.665
398.584
398.503
398.423
398.344
398.266
398.189
398.112
398.036
397.961
397.887
397.813
397.74
397.668
397.597
397.526
397.456
397.387
397.319
397.251
397.184
397.117
397.052
396.987
396.923
396.859
396.797
396.735
396.673
396.613
396.553
396.494
396.436
396.378
396.321
396.265
396.209
396.154
396.1
396.046
395.993
395.94
395.889
395.837
395.786
395.736
395.686
395.636
395.587
395.538
395.489
395.44
395.392
395.343
395.294
395.245
395.195
395.145
395.094
395.042
394.989
394.936
394.88
394.823
394.765
394.704
394.641
394.576
394.508
394.438
394.364
394.287
394.206
394.122
394.034
393.942
393.846
393.746
393.642
393.534
393.423
393.308
393.19
393.069
392.947
392.824
392.7
392.578
392.459
392.343
392.234
392.132
392.039
391.959
391.893
391.844
391.816
391.81
391.83
391.879
391.961
392.079
392.237
405.988
405.969
405.933
405.88
405.809
405.722
405.619
405.502
405.371
405.229
405.077
404.916
404.747
404.573
404.393
404.21
404.024
403.837
403.648
403.459
403.271
403.085
402.9
402.719
402.54
402.365
402.194
402.028
401.865
401.707
401.554
401.406
401.262
401.123
400.988
400.857
400.73
400.607
400.488
400.372
400.259
400.149
400.042
399.938
399.836
399.736
399.638
399.542
399.448
399.355
399.264
399.174
399.086
398.999
398.912
398.827
398.743
398.66
398.578
398.497
398.416
398.336
398.257
398.179
398.102
398.025
397.949
397.874
397.8
397.726
397.653
397.58
397.508
397.437
397.367
397.297
397.227
397.159
397.091
397.024
396.957
396.891
396.825
396.76
396.696
396.632
396.569
396.507
396.445
396.383
396.322
396.262
396.202
396.143
396.084
396.025
395.967
395.909
395.852
395.794
395.737
395.681
395.624
395.567
395.511
395.454
395.397
395.34
395.283
395.225
395.166
395.107
395.047
394.986
394.924
394.86
394.795
394.728
394.66
394.589
394.515
394.44
394.361
394.279
394.194
394.105
394.012
393.915
393.814
393.708
393.597
393.481
393.36
393.233
393.101
392.964
392.821
392.673
392.52
392.362
392.2
392.035
391.868
391.699
391.53
391.362
391.197
391.036
390.882
390.738
390.605
390.486
390.385
390.304
390.248
390.219
390.222
390.259
390.336
390.455
405.951
405.933
405.898
405.846
405.777
405.692
405.592
405.477
405.349
405.209
405.06
404.901
404.735
404.563
404.386
404.205
404.021
403.835
403.648
403.461
403.274
403.089
402.906
402.725
402.547
402.373
402.202
402.036
401.874
401.716
401.563
401.414
401.27
401.13
400.994
400.863
400.736
400.612
400.492
400.376
400.263
400.152
400.045
399.94
399.837
399.737
399.638
399.542
399.447
399.354
399.262
399.172
399.083
398.995
398.908
398.822
398.738
398.654
398.571
398.489
398.408
398.328
398.248
398.169
398.091
398.014
397.937
397.861
397.785
397.71
397.636
397.563
397.49
397.417
397.345
397.274
397.203
397.133
397.064
396.995
396.926
396.858
396.791
396.724
396.657
396.591
396.525
396.46
396.395
396.331
396.266
396.203
396.139
396.076
396.013
395.95
395.887
395.825
395.762
395.7
395.637
395.574
395.512
395.448
395.385
395.321
395.256
395.191
395.125
395.058
394.99
394.92
394.85
394.777
394.703
394.627
394.549
394.468
394.385
394.298
394.209
394.116
394.019
393.919
393.813
393.704
393.589
393.469
393.343
393.211
393.073
392.929
392.778
392.621
392.456
392.284
392.105
391.92
391.728
391.529
391.325
391.115
390.901
390.684
390.465
390.245
390.027
389.812
389.602
389.401
389.21
389.034
388.875
388.737
388.625
388.541
388.49
388.477
388.505
388.578
405.933
405.915
405.88
405.829
405.761
405.677
405.578
405.464
405.337
405.199
405.051
404.894
404.729
404.558
404.382
404.202
404.019
403.834
403.648
403.461
403.275
403.091
402.908
402.727
402.55
402.376
402.205
402.039
401.877
401.719
401.566
401.417
401.273
401.133
400.997
400.865
400.738
400.614
400.494
400.377
400.263
400.152
400.044
399.939
399.836
399.735
399.636
399.539
399.444
399.35
399.258
399.167
399.078
398.99
398.903
398.816
398.731
398.647
398.564
398.481
398.399
398.318
398.238
398.158
398.08
398.001
397.924
397.847
397.77
397.694
397.619
397.545
397.47
397.397
397.324
397.251
397.179
397.107
397.036
396.965
396.895
396.825
396.755
396.686
396.617
396.549
396.481
396.413
396.345
396.277
396.21
396.143
396.076
396.009
395.942
395.875
395.808
395.74
395.673
395.605
395.537
395.468
395.399
395.33
395.259
395.188
395.116
395.042
394.968
394.892
394.814
394.735
394.653
394.57
394.484
394.395
394.304
394.21
394.112
394.01
393.905
393.795
393.68
393.561
393.436
393.305
393.168
393.025
392.875
392.717
392.552
392.38
392.199
392.01
391.812
391.605
391.39
391.166
390.933
390.692
390.443
390.187
389.924
389.656
389.384
389.109
388.834
388.56
388.29
388.027
387.774
387.535
387.312
387.111
386.935
386.79
386.679
386.608
386.58
386.601
405.933
405.915
405.88
405.829
405.761
405.677
405.577
405.463
405.337
405.199
405.05
404.893
404.729
404.558
404.382
404.201
404.018
403.833
403.647
403.461
403.275
403.09
402.907
402.726
402.549
402.375
402.204
402.038
401.876
401.718
401.564
401.416
401.271
401.131
400.995
400.863
400.735
400.611
400.491
400.374
400.26
400.149
400.041
399.935
399.832
399.731
399.632
399.535
399.439
399.345
399.253
399.162
399.072
398.983
398.896
398.809
398.724
398.639
398.555
398.472
398.39
398.308
398.227
398.147
398.067
397.988
397.91
397.832
397.755
397.678
397.602
397.526
397.45
397.376
397.301
397.227
397.154
397.08
397.008
396.935
396.863
396.791
396.72
396.648
396.577
396.506
396.435
396.365
396.294
396.224
396.153
396.083
396.012
395.941
395.871
395.799
395.728
395.656
395.584
395.511
395.437
395.363
395.288
395.211
395.134
395.056
394.976
394.895
394.811
394.727
394.64
394.55
394.459
394.364
394.267
394.166
394.062
393.954
393.841
393.725
393.603
393.476
393.344
393.206
393.061
392.91
392.751
392.585
392.41
392.227
392.035
391.834
391.623
391.401
391.17
390.928
390.675
390.411
390.137
389.852
389.557
389.252
388.938
388.617
388.289
387.955
387.619
387.282
386.947
386.617
386.295
385.986
385.693
385.421
385.175
384.96
384.782
384.645
384.555
384.515
405.95
405.932
405.897
405.845
405.776
405.691
405.59
405.475
405.347
405.208
405.058
404.9
404.734
404.562
404.384
404.203
404.019
403.833
403.646
403.459
403.272
403.086
402.903
402.722
402.544
402.369
402.199
402.032
401.87
401.712
401.558
401.409
401.265
401.125
400.989
400.857
400.729
400.605
400.485
400.368
400.254
400.143
400.035
399.929
399.826
399.725
399.626
399.529
399.433
399.339
399.246
399.155
399.065
398.976
398.888
398.801
398.715
398.63
398.545
398.462
398.379
398.297
398.215
398.134
398.054
397.974
397.895
397.816
397.738
397.661
397.583
397.506
397.43
397.354
397.278
397.203
397.128
397.053
396.979
396.905
396.831
396.757
396.683
396.61
396.537
396.463
396.39
396.317
396.244
396.17
396.097
396.023
395.949
395.874
395.799
395.724
395.648
395.572
395.495
395.417
395.338
395.258
395.176
395.094
395.01
394.924
394.837
394.748
394.657
394.563
394.467
394.368
394.266
394.161
394.052
393.939
393.822
393.701
393.574
393.443
393.305
393.162
393.012
392.856
392.691
392.519
392.339
392.149
391.951
391.742
391.523
391.293
391.051
390.798
390.532
390.254
389.963
389.659
389.341
389.011
388.668
388.313
387.945
387.567
387.18
386.784
386.383
385.978
385.572
385.169
384.772
384.385
384.014
383.664
383.34
383.047
382.792
382.581
382.419
382.313
405.986
405.967
405.931
405.878
405.807
405.72
405.617
405.5
405.369
405.227
405.074
404.913
404.745
404.57
404.391
404.207
404.021
403.833
403.644
403.456
403.267
403.081
402.896
402.714
402.535
402.36
402.189
402.021
401.859
401.701
401.547
401.398
401.254
401.114
400.978
400.847
400.719
400.595
400.475
400.359
400.245
400.134
400.026
399.921
399.818
399.717
399.618
399.52
399.425
399.331
399.238
399.146
399.056
398.967
398.879
398.792
398.705
398.62
398.535
398.451
398.368
398.285
398.203
398.121
398.04
397.96
397.88
397.8
397.721
397.643
397.564
397.487
397.409
397.332
397.255
397.178
397.102
397.026
396.95
396.874
396.798
396.723
396.647
396.572
396.496
396.42
396.345
396.269
396.193
396.116
396.04
395.963
395.885
395.807
395.729
395.649
395.569
395.488
395.406
395.323
395.239
395.153
395.066
394.978
394.887
394.795
394.7
394.603
394.504
394.401
394.296
394.188
394.076
393.96
393.84
393.715
393.586
393.451
393.311
393.165
393.012
392.852
392.685
392.51
392.327
392.134
391.932
391.72
391.497
391.263
391.017
390.758
390.486
390.2
389.9
389.585
389.255
388.91
388.549
388.172
387.779
387.37
386.947
386.51
386.059
385.598
385.126
384.648
384.165
383.682
383.203
382.732
382.274
381.836
381.423
381.043
380.702
380.407
380.165
379.983
406.04
406.021
405.983
405.928