/*--------------------------------*- C++ -*----------------------------------*\
| =========                 |                                                 |
| \\      /  F ield         | OpenFOAM: The Open Source CFD Toolbox           |
|  \\    /   O peration     | Version:  2306                                  |
|   \\  /    A nd           | Website:  www.openfoam.com                      |
|    \\/     M anipulation  |                                                 |
\*---------------------------------------------------------------------------*/
FoamFile
{
    version     2.0;
    format      ascii;
    arch        "LSB;label=32;scalar=64";
    class       surfaceScalarField;
    location    "0.125";
    object      phi;
}
// * * * * * * * * * * * * * * * * * * * * * * * * * * * * * * * * * * * * * //

dimensions      [0 3 -1 0 0 0 0];

oriented        oriented;

internalField   nonuniform List<scalar> 
34640
(
0.0049244
7.55985e-05
0.00478599
0.000138414
0.00463052
0.000155466
0.00447385
0.000156667
0.00431583
0.000158021
0.00415467
0.000161159
0.00399076
0.000163917
0.00382543
0.000165326
0.00366033
0.0001651
0.00349684
0.000163491
0.00333587
0.000160974
0.00317801
0.000157858
0.0030238
0.000154207
0.00287382
0.00014998
0.0027287
0.000145122
0.00258908
0.000139616
0.00245566
0.000133424
0.00232903
0.00012663
0.00220956
0.000119469
0.00209765
0.000111915
0.0019936
0.00010405
0.00189761
9.59826e-05
0.00180978
8.78366e-05
0.00173004
7.97407e-05
0.00165821
7.18222e-05
0.00159401
6.42005e-05
0.00153703
5.69796e-05
0.00148679
5.02447e-05
0.00144273
4.40578e-05
0.00140427
3.84587e-05
0.00137081
3.34637e-05
0.00134174
2.90701e-05
0.00131648
2.52572e-05
0.00129449
2.19923e-05
0.00127526
1.92328e-05
0.00125833
1.69305e-05
0.0012433
1.50304e-05
0.00122983
1.34691e-05
0.00121763
1.21964e-05
0.00120646
1.11719e-05
0.0011961
1.03588e-05
0.00118638
9.72174e-06
0.00117715
9.22816e-06
0.0011683
8.84899e-06
0.00115974
8.55944e-06
0.0011514
8.33891e-06
0.00114323
8.17057e-06
0.00113519
8.04084e-06
0.00112725
7.93887e-06
0.0011194
7.85615e-06
0.00111161
7.78609e-06
0.00110389
7.72373e-06
0.00109622
7.66547e-06
0.00108861
7.60879e-06
0.00108106
7.55204e-06
0.00107357
7.49425e-06
0.00106613
7.43497e-06
0.00105876
7.37415e-06
0.00105144
7.31198e-06
0.0010442
7.2489e-06
0.00103701
7.18545e-06
0.00102989
7.12226e-06
0.00102283
7.06e-06
0.00101583
6.99938e-06
0.00100889
6.94108e-06
0.001002
6.88577e-06
0.000995168
6.8341e-06
0.000988381
6.78667e-06
0.000981637
6.74407e-06
0.00097493
6.70684e-06
0.000968254
6.6755e-06
0.000961604
6.65052e-06
0.000954972
6.63235e-06
0.00094835
6.6214e-06
0.000941732
6.61809e-06
0.000935109
6.62277e-06
0.000928473
6.63585e-06
0.000921816
6.65769e-06
0.000915127
6.68868e-06
0.000908398
6.7292e-06
0.000901618
6.77964e-06
0.000894778
6.8404e-06
0.000887866
6.9119e-06
0.000880871
6.99455e-06
0.000873783
7.0888e-06
0.000866588
7.1951e-06
0.000859274
7.31394e-06
0.000851828
7.44581e-06
0.000844237
7.59124e-06
0.000836486
7.75077e-06
0.000828561
7.92495e-06
0.000820447
8.11439e-06
0.000812127
8.31968e-06
0.000803585
8.54145e-06
0.000794805
8.78033e-06
0.000785768
9.037e-06
0.000776456
9.31211e-06
0.00076685
9.60633e-06
0.000756929
9.92033e-06
0.000746675
1.02548e-05
0.000736064
1.06103e-05
0.000725077
1.09874e-05
0.00071369
1.13868e-05
0.000701881
1.1809e-05
0.000689627
1.22542e-05
0.000676904
1.2723e-05
0.000663689
1.32153e-05
0.000649957
1.37313e-05
0.000635686
1.42708e-05
0.000620853
1.48334e-05
0.000605435
1.54182e-05
0.00058941
1.60247e-05
0.000572759
1.66514e-05
0.000555463
1.72963e-05
0.000537506
1.7957e-05
0.000518875
1.86308e-05
0.000499561
1.93141e-05
0.000479558
2.00025e-05
0.000458867
2.0691e-05
0.000437494
2.13732e-05
0.000415452
2.20423e-05
0.000392762
2.26897e-05
0.000369456
2.33064e-05
0.000345574
2.38816e-05
0.00032117
2.44037e-05
0.000296311
2.48598e-05
0.000271074
2.52363e-05
0.000245556
2.55186e-05
0.000219864
2.56919e-05
0.000194123
2.57413e-05
0.00016847
2.5653e-05
0.000143055
2.54142e-05
0.00011804
2.50154e-05
9.35906e-05
2.44494e-05
6.98753e-05
2.37154e-05
4.70616e-05
2.28137e-05
2.53036e-05
2.1758e-05
4.75578e-06
2.05478e-05
-1.4497e-05
1.92527e-05
-3.23219e-05
1.78249e-05
-4.86123e-05
1.62904e-05
-6.32657e-05
1.46534e-05
-7.61723e-05
1.29066e-05
-8.72162e-05
1.10439e-05
-9.62914e-05
9.07526e-06
-0.000103336
7.04494e-06
-0.000108373
5.03644e-06
-0.000111533
3.1606e-06
-0.000113117
1.58313e-06
-0.000113447
3.3012e-07
-0.000112526
-9.20984e-07
-0.000110211
-2.31426e-06
-0.000106244
-3.96737e-06
-0.000100247
-5.99718e-06
-9.19255e-05
-8.32117e-06
-8.12711e-05
-1.06544e-05
-6.90061e-05
-1.2265e-05
-5.69343e-05
-1.20718e-05
-4.75354e-05
-9.39879e-06
-4.64623e-06
-4.28892e-05
0.00503752
3.80745e-05
0.0050774
9.85337e-05
0.00509715
0.000135718
0.00510103
0.000152792
0.00509796
0.000161092
0.00509064
0.000168473
0.00507781
0.00017675
0.00505834
0.00018479
0.00503219
0.00019125
0.00500002
0.00019566
0.00496271
0.000198288
0.00492099
0.000199575
0.00487541
0.00019979
0.00482637
0.00019902
0.00477424
0.000197247
0.00471943
0.000194431
0.00466229
0.000190562
0.00460321
0.000185707
0.00454271
0.000179969
0.00448121
0.00017342
0.00441911
0.000166152
0.0043568
0.000158286
0.00429468
0.000149964
0.00423308
0.000141342
0.00417232
0.000132581
0.00411268
0.000123835
0.00405441
0.000115249
0.00399771
0.00010695
0.00394272
9.90442e-05
0.00388957
9.16137e-05
0.00383832
8.47145e-05
0.00378901
7.8381e-05
0.00374164
7.26236e-05
0.00369619
6.74375e-05
0.00365263
6.28002e-05
0.00361087
5.86906e-05
0.00357078
5.51147e-05
0.00353234
5.19131e-05
0.00349546
4.9076e-05
0.00346005
4.65801e-05
0.00342602
4.43875e-05
0.00339328
4.24604e-05
0.00336175
4.07631e-05
0.00333133
3.92626e-05
0.00330196
3.79292e-05
0.00327357
3.67374e-05
0.00324607
3.56648e-05
0.00321942
3.46927e-05
0.00319355
3.38048e-05
0.00316842
3.29879e-05
0.00314398
3.22309e-05
0.00312018
3.15245e-05
0.00309698
3.08615e-05
0.00307435
3.02361e-05
0.00305226
2.96436e-05
0.00303068
2.90805e-05
0.00300957
2.85442e-05
0.00298891
2.80326e-05
0.00296868
2.75442e-05
0.00294885
2.70781e-05
0.0029294
2.66335e-05
0.00291031
2.62102e-05
0.00289156
2.58079e-05
0.00287314
2.54266e-05
0.00285501
2.50664e-05
0.00283717
2.47276e-05
0.00281959
2.44104e-05
0.00280226
2.41151e-05
0.00278517
2.38421e-05
0.00276828
2.35918e-05
0.00275159
2.33648e-05
0.00273508
2.31615e-05
0.00271873
2.29823e-05
0.00270252
2.28279e-05
0.00268644
2.26987e-05
0.00267047
2.25953e-05
0.00265459
2.25183e-05
0.00263878
2.24685e-05
0.00262302
2.24465e-05
0.0026073
2.24531e-05
0.00259159
2.24893e-05
0.00257587
2.25558e-05
0.00256013
2.26538e-05
0.00254434
2.27842e-05
0.00252848
2.29482e-05
0.00251253
2.31469e-05
0.00249646
2.33818e-05
0.00248025
2.36541e-05
0.00246388
2.39654e-05
0.00244731
2.43172e-05
0.00243052
2.47112e-05
0.00241349
2.51492e-05
0.00239618
2.56331e-05
0.00237855
2.61648e-05
0.00236059
2.67464e-05
0.00234224
2.73802e-05
0.00232349
2.80685e-05
0.00230428
2.88136e-05
0.00228458
2.96181e-05
0.00226435
3.04845e-05
0.00224355
3.14155e-05
0.00222212
3.24139e-05
0.00220003
3.34825e-05
0.00217721
3.46239e-05
0.00215362
3.58411e-05
0.00212921
3.71369e-05
0.00210391
3.85138e-05
0.00207767
3.99745e-05
0.00205042
4.15213e-05
0.00202209
4.31562e-05
0.00199263
4.48811e-05
0.00196196
4.66981e-05
0.00193
4.86079e-05
0.00189669
5.06108e-05
0.00186194
5.27062e-05
0.00182568
5.4893e-05
0.00178782
5.71691e-05
0.00174829
5.95306e-05
0.00170701
6.19726e-05
0.0016639
6.4488e-05
0.00161887
6.70678e-05
0.00157186
6.97006e-05
0.00152279
7.23725e-05
0.00147161
7.50664e-05
0.00141825
7.7762e-05
0.00136268
8.04353e-05
0.00130485
8.30582e-05
0.00124477
8.55982e-05
0.00118245
8.80185e-05
0.00111791
9.02767e-05
0.00105124
9.23263e-05
0.000982539
9.41142e-05
0.00091197
9.55845e-05
0.000839746
9.66729e-05
0.000766146
9.73157e-05
0.000691522
9.7438e-05
0.000616303
9.69768e-05
0.000541011
9.58397e-05
0.000466272
9.39921e-05
0.000392747
9.13494e-05
0.00032117
8.78672e-05
0.000252294
8.35295e-05
0.000186849
7.8352e-05
0.000125492
7.24e-05
6.87679e-05
6.57998e-05
1.70751e-05
5.87377e-05
-2.93479e-05
5.14594e-05
-7.0403e-05
4.42158e-05
-0.000106026
3.72062e-05
-0.0001363
3.06039e-05
-0.000161347
2.41266e-05
-0.000180889
1.72275e-05
-0.000195039
1.01826e-05
-0.000203962
2.92554e-06
-0.000207795
-4.48766e-06
-0.000206597
-1.18526e-05
-0.000201267
-1.75944e-05
-0.000194131
-1.92078e-05
-0.000188682
-1.48477e-05
-5.54715e-06
-0.000187781
0.00501445
2.36267e-05
0.00504447
6.85077e-05
0.00507418
0.000106008
0.00509859
0.000128384
0.00511781
0.000141871
0.00513504
0.000151247
0.00515197
0.000159819
0.0051682
0.000168565
0.00518273
0.000176711
0.00519494
0.000183457
0.00520467
0.000188554
0.00521211
0.000192137
0.00521743
0.000194471
0.00522069
0.000195756
0.00522187
0.00019607
0.00522089
0.000195408
0.0052177
0.000193754
0.00521229
0.000191114
0.00520475
0.000187516
0.00519511
0.000183052
0.00518347
0.000177793
0.00516992
0.000171837
0.00515458
0.000165303
0.0051376
0.000158325
0.00511914
0.000151043
0.00509937
0.000143601
0.00507849
0.000136135
0.00505666
0.000128773
0.00503408
0.000121624
0.00501092
0.000114781
0.00498732
0.000108314
0.00496342
0.000102274
0.00493936
9.66896e-05
0.00491522
9.15753e-05
0.00489109
8.69305e-05
0.00486703
8.27443e-05
0.00484316
7.89902e-05
0.00481946
7.56136e-05
0.00479595
7.25798e-05
0.00477267
6.9864e-05
0.00474962
6.74388e-05
0.00472681
6.52737e-05
0.00470423
6.33377e-05
0.00468189
6.16008e-05
0.00465979
6.00357e-05
0.00463791
5.86179e-05
0.00461625
5.73258e-05
0.0045948
5.61409e-05
0.00457356
5.50471e-05
0.00455251
5.40311e-05
0.00453166
5.30813e-05
0.004511
5.21883e-05
0.00449052
5.13444e-05
0.00447021
5.05435e-05
0.00445007
4.97805e-05
0.0044301
4.90516e-05
0.00441029
4.83541e-05
0.00439064
4.76856e-05
0.00437114
4.70448e-05
0.00435178
4.64306e-05
0.00433258
4.58424e-05
0.00431351
4.52801e-05
0.00429457
4.47435e-05
0.00427576
4.4233e-05
0.00425708
4.3749e-05
0.00423852
4.3292e-05
0.00422006
4.28627e-05
0.00420172
4.24618e-05
0.00418347
4.20903e-05
0.00416531
4.1749e-05
0.00414724
4.14388e-05
0.00412924
4.11609e-05
0.0041113
4.09163e-05
0.00409343
4.07062e-05
0.00407559
4.05316e-05
0.00405779
4.03938e-05
0.00404002
4.02939e-05
0.00402225
4.02335e-05
0.00400449
4.02141e-05
0.0039867
4.02371e-05
0.00396889
4.03042e-05
0.00395103
4.04173e-05
0.0039331
4.05782e-05
0.0039151
4.07889e-05
0.00389699
4.10515e-05
0.00387877
4.13684e-05
0.00386041
4.17418e-05
0.00384189
4.21745e-05
0.00382319
4.2669e-05
0.00380428
4.32284e-05
0.00378513
4.38557e-05
0.00376573
4.45542e-05
0.00374603
4.53273e-05
0.00372602
4.61788e-05
0.00370565
4.71124e-05
0.0036849
4.81325e-05
0.00366373
4.92432e-05
0.00364209
5.04491e-05
0.00361995
5.17551e-05
0.00359727
5.31661e-05
0.003574
5.46874e-05
0.00355009
5.63246e-05
0.00352549
5.80832e-05
0.00350014
5.99692e-05
0.003474
6.19887e-05
0.00344699
6.41479e-05
0.00341905
6.64531e-05
0.00339011
6.89106e-05
0.0033601
7.15271e-05
0.00332895
7.43088e-05
0.00329657
7.7262e-05
0.00326288
8.03934e-05
0.00322777
8.37087e-05
0.00319117
8.7213e-05
0.00315297
9.09109e-05
0.00311305
9.48066e-05
0.00307132
9.89037e-05
0.00302765
0.000103204
0.00298191
0.000107708
0.00293399
0.000112414
0.00288373
0.000117318
0.00283102
0.000122415
0.0027757
0.000127694
0.00271762
0.000133144
0.00265664
0.000138746
0.00259259
0.00014448
0.00252533
0.000150317
0.00245471
0.000156225
0.00238056
0.000162163
0.00230276
0.000168082
0.00222116
0.000173926
0.00213564
0.000179627
0.00204612
0.000185108
0.00195251
0.000190279
0.00185479
0.00019504
0.00175296
0.000199271
0.00164709
0.000202848
0.0015373
0.000205622
0.00142384
0.000207452
0.00130702
0.000208168
0.0011873
0.000207595
0.00106527
0.000205561
0.000941722
0.000201896
0.000817675
0.000196447
0.000694383
0.000189092
0.000573368
0.000179753
0.000456397
0.00016843
0.000345393
0.00015522
0.000242249
0.00014035
0.000148679
0.000124174
6.56855e-05
0.00010712
-6.85061e-06
8.97636e-05
-6.92061e-05
7.25381e-05
-0.000121802
5.55216e-05
-0.000165128
3.88388e-05
-0.000198408
2.14276e-05
-0.00022215
6.14722e-06
-0.000238843
-2.51453e-06
-0.000251976
-1.7148e-06
7.18424e-06
-0.000264707
0.00500634
1.72878e-05
0.00502385
5.09971e-05
0.00504705
8.28108e-05
0.00506939
0.000106038
0.00508908
0.000122181
0.00510686
0.000133469
0.00512444
0.000142239
0.00514266
0.00015035
0.0051611
0.00015827
0.00517927
0.000165285
0.00519684
0.000170982
0.0052137
0.000175278
0.00522987
0.000178297
0.00524539
0.000180238
0.0052602
0.000181258
0.00527421
0.000181398
0.0052873
0.000180669
0.00529934
0.000179071
0.00531023
0.000176625
0.0053199
0.000173389
0.00532826
0.000169431
0.00533527
0.00016483
0.00534089
0.000159683
0.00534511
0.000154096
0.00534797
0.000148186
0.0053495
0.00014207
0.00534977
0.000135864
0.00534887
0.000129677
0.00534689
0.000123607
0.00534393
0.000117739
0.0053401
0.00011214
0.00533551
0.000106862
0.00533026
0.000101941
0.00532444
9.73964e-05
0.00531814
9.32351e-05
0.00531143
8.945e-05
0.0053044
8.60242e-05
0.00529707
8.29363e-05
0.0052895
8.01588e-05
0.00528169
7.7666e-05
0.0052737
7.54343e-05
0.00526553
7.34394e-05
0.00525721
7.16561e-05
0.00524876
7.00595e-05
0.00524017
6.86258e-05
0.00523145
6.73333e-05
0.00522261
6.61623e-05
0.00521366
6.50957e-05
0.00520459
6.41184e-05
0.0051954
6.32178e-05
0.0051861
6.23828e-05
0.00517668
6.16042e-05
0.00516715
6.08745e-05
0.00515751
6.01872e-05
0.00514775
5.95375e-05
0.00513788
5.89213e-05
0.0051279
5.83357e-05
0.00511781
5.77783e-05
0.00510761
5.72477e-05
0.00509729
5.67427e-05
0.00508687
5.62627e-05
0.00507635
5.58077e-05
0.00506571
5.53777e-05
0.00505497
5.49731e-05
0.00504413
5.45946e-05
0.00503317
5.42429e-05
0.00502212
5.3919e-05
0.00501096
5.3624e-05
0.00499969
5.33591e-05
0.00498831
5.31257e-05
0.00497682
5.29251e-05
0.00496523
5.2759e-05
0.00495351
5.26288e-05
0.00494168
5.25362e-05
0.00492973
5.24831e-05
0.00491765
5.24711e-05
0.00490545
5.25022e-05
0.0048931
5.25785e-05
0.00488061
5.27021e-05
0.00486798
5.28754e-05
0.00485518
5.31009e-05
0.00484221
5.33811e-05
0.00482907
5.37188e-05
0.00481575
5.41169e-05
0.00480222
5.45786e-05
0.00478848
5.5107e-05
0.00477452
5.57057e-05
0.00476031
5.63784e-05
0.00474585
5.71291e-05
0.00473112
5.79619e-05
0.00471609
5.88812e-05
0.00470076
5.98917e-05
0.00468508
6.09985e-05
0.00466906
6.22069e-05
0.00465265
6.35224e-05
0.00463583
6.4951e-05
0.00461857
6.6499e-05
0.00460085
6.8173e-05
0.00458262
6.998e-05
0.00456386
7.19274e-05
0.00454453
7.4023e-05
0.00452458
7.62748e-05
0.00450397
7.86916e-05
0.00448266
8.12821e-05
0.00446059
8.40558e-05
0.00443771
8.70223e-05
0.00441398
9.01917e-05
0.00438931
9.35743e-05
0.00436366
9.7181e-05
0.00433694
0.000101023
0.0043091
0.00010511
0.00428003
0.000109456
0.00424967
0.00011407
0.00421792
0.000118964
0.00418468
0.000124149
0.00414985
0.000129636
0.00411332
0.000135435
0.00407497
0.000141556
0.00403467
0.000148006
0.00399229
0.000154793
0.00394769
0.000161921
0.00390071
0.000169395
0.00385119
0.000177213
0.00379896
0.000185373
0.00374384
0.000193869
0.00368563
0.000202688
0.00362413
0.000211815
0.00355914
0.000221225
0.00349041
0.000230889
0.00341772
0.000240767
0.00334084
0.000250811
0.00325951
0.000260961
0.00317347
0.000271145
0.00308247
0.000281274
0.00298627
0.000291247
0.00288459
0.000300942
0.00277723
0.000310216
0.00266395
0.000318902
0.00254457
0.000326826
0.00241895
0.000333786
0.002287
0.00033955
0.00214869
0.000343867
0.00200412
0.000346469
0.00185349
0.000347076
0.00169718
0.000345404
0.00153576
0.000341175
0.00137005
0.000334136
0.00120123
0.000324042
0.00103092
0.000310657
0.000861319
0.000293777
0.00069516
0.000273278
0.000535763
0.000249162
0.000386685
0.000221616
0.000251198
0.000191008
0.000132165
0.000157872
3.01776e-05
0.000123415
-5.42106e-05
9.05354e-05
-0.000120415
6.36902e-05
-0.00017039
4.82603e-05
4.70313e-05
-0.000210237
0.00500365
1.3637e-05
0.00501435
4.03006e-05
0.00503119
6.59717e-05
0.00504935
8.78791e-05
0.00506702
0.000104502
0.00508363
0.000116864
0.00509961
0.000126255
0.00511581
0.000134149
0.00513257
0.000141514
0.00514966
0.000148192
0.00516676
0.000153882
0.00518367
0.000158367
0.00520032
0.00016165
0.00521669
0.000163867
0.00523279
0.00016516
0.00524857
0.000165614
0.00526396
0.000165276
0.00527887
0.000164166
0.00529318
0.000162313
0.00530681
0.000159757
0.00531969
0.000156558
0.00533173
0.00015279
0.00534288
0.000148531
0.0053531
0.000143873
0.00536237
0.000138913
0.0053707
0.000133747
0.00537809
0.000128473
0.00538458
0.000123183
0.00539023
0.000117961
0.00539509
0.000112881
0.00539922
0.000108004
0.00540271
0.000103378
0.00540561
9.90376e-05
0.005408
9.50038e-05
0.00540995
9.12867e-05
0.00541152
8.78854e-05
0.00541275
8.47923e-05
0.00541369
8.19959e-05
0.00541437
7.94777e-05
0.00541482
7.72163e-05
0.00541506
7.51907e-05
0.00541512
7.33804e-05
0.00541501
7.1765e-05
0.00541475
7.0324e-05
0.00541434
6.90375e-05
0.00541378
6.78865e-05
0.00541309
6.68537e-05
0.00541226
6.59236e-05
0.0054113
6.50825e-05
0.0054102
6.43185e-05
0.00540896
6.36214e-05
0.00540758
6.29823e-05
0.00540606
6.23939e-05
0.0054044
6.185e-05
0.00540259
6.13455e-05
0.00540064
6.08765e-05
0.00539853
6.04397e-05
0.00539628
6.00327e-05
0.00539387
5.96539e-05
0.00539131
5.93019e-05
0.0053886
5.89762e-05
0.00538573
5.86763e-05
0.00538271
5.84025e-05
0.00537953
5.8155e-05
0.00537619
5.79344e-05
0.00537269
5.77416e-05
0.00536903
5.75776e-05
0.00536521
5.74436e-05
0.00536123
5.7341e-05
0.00535708
5.72712e-05
0.00535277
5.7236e-05
0.00534829
5.7237e-05
0.00534364
5.72762e-05
0.00533883
5.73554e-05
0.00533383
5.74768e-05
0.00532866
5.76426e-05
0.00532331
5.78551e-05
0.00531777
5.81168e-05
0.00531204
5.84304e-05
0.00530612
5.87987e-05
0.00529999
5.92246e-05
0.00529366
5.97115e-05
0.00528712
6.02626e-05
0.00528036
6.08816e-05
0.00527336
6.15721e-05
0.00526613
6.23384e-05
0.00525865
6.31846e-05
0.00525091
6.41153e-05
0.00524291
6.51354e-05
0.00523462
6.62499e-05
0.00522604
6.74645e-05
0.00521714
6.87848e-05
0.00520793
7.02171e-05
0.00519836
7.17679e-05
0.00518844
7.34441e-05
0.00517814
7.52531e-05
0.00516744
7.72028e-05
0.00515631
7.93014e-05
0.00514473
8.15577e-05
0.00513268
8.39809e-05
0.00512012
8.65808e-05
0.00510703
8.93678e-05
0.00509337
9.23527e-05
0.0050791
9.5547e-05
0.00506419
9.89627e-05
0.0050486
0.000102612
0.00503229
0.000106509
0.00501519
0.000110667
0.00499728
0.0001151
0.00497847
0.000119823
0.00495873
0.000124851
0.00493799
0.000130202
0.00491617
0.000135889
0.0048932
0.000141931
0.004869
0.000148344
0.0048435
0.000155145
0.00481658
0.000162352
0.00478816
0.000169979
0.00475812
0.000178045
0.00472635
0.000186563
0.00469272
0.00019555
0.0046571
0.000205016
0.00461934
0.000214974
0.00457928
0.000225433
0.00453675
0.000236397
0.00449157
0.000247869
0.00444354
0.000259847
0.00439244
0.000272321
0.00433805
0.00028528
0.00428012
0.000298699
0.00421838
0.000312548
0.00415255
0.000326786
0.00408234
0.00034136
0.00400741
0.0003562
0.00392744
0.000371224
0.00384205
0.000386327
0.00375088
0.000401385
0.00365353
0.000416253
0.0035496
0.000430762
0.00343866
0.000444717
0.00332032
0.000457891
0.00319416
0.000470027
0.00305979
0.00048084
0.00291685
0.000490016
0.00276505
0.00049721
0.00260419
0.000502036
0.0024342
0.000504117
0.0022552
0.000503044
0.00206752
0.000498341
0.00187178
0.00048952
0.00166894
0.000476117
0.00146036
0.000457736
0.00124791
0.000434066
0.00103412
0.000404799
0.000822316
0.000369678
0.000617117
0.000328614
0.000425564
0.000282088
0.000256643
0.000232611
0.000118608
0.000186295
0.0001514
1.42396e-05
0.00500249
1.11474e-05
0.00500982
3.29693e-05
0.00502171
5.40862e-05
0.00503621
7.33742e-05
0.00505142
8.92938e-05
0.00506648
0.000101803
0.00508114
0.000111595
0.00509574
0.000119549
0.00511076
0.000126497
0.00512621
0.000132745
0.0051419
0.000138185
0.00515764
0.000142632
0.00517326
0.000146026
0.00518872
0.000148412
0.00520399
0.000149889
0.00521905
0.000150552
0.00523386
0.00015047
0.00524834
0.000149685
0.00526242
0.000148234
0.00527601
0.000146157
0.00528907
0.000143505
0.00530152
0.000140342
0.00531331
0.000136738
0.00532441
0.000132771
0.0053348
0.000128522
0.00534447
0.000124077
0.00535343
0.000119517
0.00536169
0.00011492
0.00536929
0.000110359
0.00537628
0.000105898
0.00538269
0.000101592
0.00538858
9.74838e-05
0.00539401
9.36057e-05
0.00539904
8.998e-05
0.00540371
8.66186e-05
0.00540807
8.35257e-05
0.00541216
8.06994e-05
0.00541602
7.81324e-05
0.00541969
7.58126e-05
0.00542318
7.37238e-05
0.00542652
7.18486e-05
0.00542973
7.01696e-05
0.00543283
6.86701e-05
0.00543582
6.73331e-05
0.00543871
6.61419e-05
0.00544152
6.50805e-05
0.00544424
6.41339e-05
0.00544688
6.32882e-05
0.00544943
6.25311e-05
0.00545189
6.18517e-05
0.00545427
6.12406e-05
0.00545657
6.06896e-05
0.00545877
6.01917e-05
0.00546088
5.9741e-05
0.00546289
5.93325e-05
0.00546481
5.89623e-05
0.00546662
5.86273e-05
0.00546833
5.83248e-05
0.00546993
5.80531e-05
0.00547142
5.7811e-05
0.0054728
5.75975e-05
0.00547406
5.74124e-05
0.00547521
5.72555e-05
0.00547623
5.71273e-05
0.00547714
5.70281e-05
0.00547792
5.69589e-05
0.00547858
5.69207e-05
0.00547911
5.69147e-05
0.00547951
5.69423e-05
0.00547977
5.7005e-05
0.00547991
5.71046e-05
0.0054799
5.72429e-05
0.00547975
5.7422e-05
0.00547947
5.76439e-05
0.00547903
5.7911e-05
0.00547845
5.82256e-05
0.00547771
5.85905e-05
0.00547682
5.90083e-05
0.00547577
5.94819e-05
0.00547455
6.00146e-05
0.00547317
6.06096e-05
0.00547161
6.12705e-05
0.00546987
6.20011e-05
0.00546795
6.28054e-05
0.00546583
6.36876e-05
0.00546352
6.46523e-05
0.005461
6.57043e-05
0.00545826
6.68487e-05
0.00545531
6.8091e-05
0.00545212
6.94369e-05
0.00544869
7.08926e-05
0.00544501
7.24648e-05
0.00544107
7.41603e-05
0.00543685
7.59866e-05
0.00543234
7.79515e-05
0.00542753
8.00634e-05
0.00542241
8.23311e-05
0.00541694
8.47642e-05
0.00541113
8.73725e-05
0.00540494
9.01667e-05
0.00539837
9.31579e-05
0.00539138
9.63581e-05
0.00538395
9.97796e-05
0.00537606
0.000103436
0.00536768
0.000107341
0.00535879
0.000111509
0.00534934
0.000115956
0.00533931
0.000120697
0.00532866
0.000125751
0.00531735
0.000131134
0.00530533
0.000136866
0.00529257
0.000142965
0.00527901
0.000149452
0.00526459
0.000156347
0.00524926
0.000163671
0.00523296
0.000171447
0.00521562
0.000179697
0.00519715
0.000188443
0.00517749
0.000197708
0.00515654
0.000207514
0.00513421
0.000217884
0.00511038
0.00022884
0.00508495
0.000240402
0.0050578
0.000252589
0.00502878
0.000265419
0.00499774
0.000278906
0.00496452
0.000293063
0.00492895
0.000307896
0.00489082
0.000323409
0.00484992
0.000339597
0.00480602
0.000356452
0.00475885
0.000373952
0.00470814
0.00039207
0.00465358
0.000410762
0.00459483
0.000429973
0.00453153
0.00044963
0.00446327
0.000469642
0.00438963
0.000489897
0.00431013
0.000510261
0.00422427
0.000530573
0.00413152
0.000550642
0.0040313
0.000570245
0.00392302
0.000589125
0.00380604
0.00060699
0.00367975
0.000623505
0.00354349
0.000638295
0.00339666
0.000650949
0.0032387
0.000661005
0.0030691
0.000667939
0.00288744
0.000671182
0.00269344
0.000670111
0.00248708
0.000664103
0.00226856
0.000652579
0.00203852
0.000634846
0.00179798
0.000610213
0.00154837
0.000578225
0.00129157
0.000538889
0.00103147
0.00049271
0.000777213
0.000440553
0.000384135
0.000544478
0.00500185
9.29878e-06
0.00500728
2.75358e-05
0.00501604
4.53273e-05
0.00502755
6.18614e-05
0.00504039
7.64609e-05
0.00505373
8.84639e-05
0.00506712
9.82005e-05
0.00508052
0.000106149
0.00509416
0.000112852
0.0051082
0.000118711
0.00512256
0.00012382
0.0051371
0.0001281
0.00515164
0.000131479
0.0051661
0.000133951
0.00518043
0.000135566
0.00519458
0.000136401
0.00520852
0.00013653
0.00522219
0.000136011
0.00523554
0.000134887
0.00524849
0.000133201
0.005261
0.000131
0.005273
0.000128338
0.00528446
0.000125277
0.00529535
0.000121884
0.00530564
0.000118231
0.00531533
0.000114387
0.00532442
0.000110426
0.00533293
0.000106413
0.00534087
0.000102413
0.00534829
9.84792e-05
0.00535522
9.46615e-05
0.00536171
9.09987e-05
0.00536779
8.75213e-05
0.00537352
8.4251e-05
0.00537894
8.12018e-05
0.00538409
7.83805e-05
0.005389
7.57887e-05
0.00539371
7.34224e-05
0.00539824
7.12738e-05
0.00540264
6.9331e-05
0.00540691
6.75804e-05
0.00541107
6.60081e-05
0.00541514
6.45999e-05
0.00541913
6.33419e-05
0.00542305
6.22202e-05
0.00542691
6.12213e-05
0.00543071
6.03321e-05
0.00543446
5.95408e-05
0.00543815
5.88363e-05
0.0054418
5.82089e-05
0.00544539
5.76499e-05
0.00544892
5.71519e-05
0.00545241
5.67082e-05
0.00545584
5.63135e-05
0.0054592
5.59631e-05
0.00546251
5.56531e-05
0.00546576
5.53805e-05
0.00546894
5.51429e-05
0.00547206
5.49383e-05
0.0054751
5.47656e-05
0.00547808
5.46239e-05
0.00548098
5.45128e-05
0.0054838
5.44321e-05
0.00548654
5.43823e-05
0.00548921
5.43637e-05
0.00549179
5.43772e-05
0.00549429
5.44239e-05
0.0054967
5.45049e-05
0.00549902
5.46217e-05
0.00550125
5.47758e-05
0.00550338
5.49691e-05
0.00550542
5.52035e-05
0.00550736
5.5481e-05
0.0055092
5.58039e-05
0.00551094
5.61747e-05
0.00551257
5.65959e-05
0.00551409
5.70702e-05
0.0055155
5.76006e-05
0.00551679
5.81903e-05
0.00551796
5.88425e-05
0.00551901
5.95609e-05
0.00551993
6.03492e-05
0.00552072
6.12114e-05
0.00552137
6.21518e-05
0.00552189
6.31751e-05
0.00552225
6.4286e-05
0.00552247
6.54897e-05
0.00552252
6.67917e-05
0.00552242
6.81979e-05
0.00552214
6.97145e-05
0.00552168
7.1348e-05
0.00552104
7.31056e-05
0.00552021
7.49947e-05
0.00551917
7.70233e-05
0.00551792
7.91998e-05
0.00551645
8.15332e-05
0.00551475
8.40331e-05
0.00551281
8.67096e-05
0.00551061
8.95735e-05
0.00550814
9.26361e-05
0.00550539
9.59096e-05
0.00550234
9.94068e-05
0.00549897
0.000103141
0.00549528
0.000107127
0.00549124
0.00011138
0.00548684
0.000115916
0.00548204
0.000120751
0.00547684
0.000125903
0.00547119
0.000131392
0.00546509
0.000137237
0.0054585
0.000143457
0.00545139
0.000150076
0.00544373
0.000157115
0.00543548
0.000164598
0.0054266
0.000172549
0.00541705
0.000180993
0.00540679
0.000189956
0.00539577
0.000199465
0.00538393
0.000209548
0.00537121
0.000220231
0.00535755
0.000231544
0.00534288
0.000243513
0.00532712
0.000256167
0.00531017
0.000269533
0.00529195
0.000283638
0.00527235
0.000298507
0.00525125
0.000314162
0.00522852
0.000330625
0.00520402
0.000347913
0.00517758
0.000366039
0.00514902
0.00038501
0.00511814
0.000404828
0.00508473
0.000425487
0.00504852
0.000446971
0.00500924
0.000469253
0.00496657
0.000492293
0.00492018
0.000516036
0.00486967
0.00054041
0.0048146
0.000565322
0.00475452
0.000590659
0.00468888
0.000616279
0.00461711
0.000642012
0.00453858
0.000667655
0.0044526
0.00069297
0.00435843
0.000717677
0.00425527
0.000741454
0.00414229
0.000763928
0.00401863
0.000784673
0.00388336
0.000803202
0.00373558
0.000818965
0.00357434
0.000831347
0.00339876
0.000839684
0.00320807
0.000843272
0.00300159
0.000841326
0.00277874
0.000833061
0.00253921
0.000817757
0.00228317
0.000794928
0.00201183
0.000764054
0.00172763
0.000724751
0.000677195
0.00143457
0.00500144
7.85978e-06
0.00500568
2.3299e-05
0.00501255
3.84491e-05
0.00502174
5.2673e-05
0.00503257
6.56358e-05
0.00504425
7.67815e-05
0.00505635
8.60955e-05
0.00506868
9.38264e-05
0.00508123
0.000100302
0.0050941
0.000105838
0.0051073
0.000110616
0.00512074
0.00011466
0.00513429
0.00011793
0.00514784
0.000120403
0.00516131
0.000122098
0.00517464
0.000123067
0.0051878
0.000123373
0.00520073
0.000123078
0.00521339
0.000122231
0.00522571
0.000120877
0.00523765
0.00011906
0.00524916
0.000116829
0.0052602
0.000114236
0.00527075
0.000111341
0.00528077
0.000108203
0.00529028
0.000104886
0.00529925
0.000101449
0.00530772
9.79506e-05
0.00531568
9.4446e-05
0.00532318
9.09836e-05
0.00533023
8.76059e-05
0.00533688
8.43482e-05
0.00534317
8.1239e-05
0.00534912
7.82993e-05
0.00535478
7.55438e-05
0.00536017
7.29811e-05
0.00536535
7.06145e-05
0.00537033
6.84432e-05
0.00537514
6.64619e-05
0.00537981
6.46625e-05
0.00538435
6.30348e-05
0.00538879
6.15678e-05
0.00539314
6.025e-05
0.00539742
5.90698e-05
0.00540162
5.80157e-05
0.00540577
5.70762e-05
0.00540986
5.62404e-05
0.0054139
5.54978e-05
0.0054179
5.48389e-05
0.00542185
5.42549e-05
0.00542576
5.37382e-05
0.00542963
5.32819e-05
0.00543346
5.28802e-05
0.00543725
5.25279e-05
0.00544099
5.22207e-05
0.00544469
5.19551e-05
0.00544834
5.17282e-05
0.00545195
5.15377e-05
0.0054555
5.13818e-05
0.00545901
5.12593e-05
0.00546246
5.11695e-05
0.00546586
5.11118e-05
0.00546921
5.10862e-05
0.0054725
5.1093e-05
0.00547573
5.11328e-05
0.0054789
5.12062e-05
0.00548201
5.13145e-05
0.00548506
5.14588e-05
0.00548804
5.16405e-05
0.00549095
5.18614e-05
0.0054938
5.21232e-05
0.00549657
5.24279e-05
0.00549928
5.27777e-05
0.00550191
5.31749e-05
0.00550446
5.36221e-05
0.00550693
5.41219e-05
0.00550933
5.46771e-05
0.00551164
5.52909e-05
0.00551386
5.59666e-05
0.00551599
5.67076e-05
0.00551804
5.75176e-05
0.00551999
5.84006e-05
0.00552184
5.93608e-05
0.00552359
6.04027e-05
0.00552523
6.15311e-05
0.00552676
6.2751e-05
0.00552819
6.40678e-05
0.00552949
6.54873e-05
0.00553067
6.70156e-05
0.00553173
6.86592e-05
0.00553265
7.0425e-05
0.00553344
7.23204e-05
0.00553408
7.43531e-05
0.00553457
7.65314e-05
0.00553491
7.88642e-05
0.00553508
8.13609e-05
0.00553508
8.40314e-05
0.0055349
8.68863e-05
0.00553454
8.99368e-05
0.00553398
9.31949e-05
0.00553322
9.6673e-05
0.00553224
0.000100385
0.00553104
0.000104344
0.0055296
0.000108566
0.00552791
0.000113067
0.00552596
0.000117863
0.00552374
0.000122972
0.00552124
0.000128412
0.00551842
0.000134204
0.00551529
0.000140368
0.00551182
0.000146925
0.005508
0.000153899
0.0055038
0.000161314
0.00549921
0.000169193
0.00549419
0.000177565
0.00548873
0.000186454
0.0054828
0.000195891
0.00547636
0.000205903
0.00546938
0.000216522
0.00546184
0.000227776
0.00545368
0.0002397
0.00544487
0.000252324
0.00543536
0.00026568
0.00542509
0.000279803
0.005414
0.000294724
0.00540204
0.000310475
0.00538911
0.000327087
0.00537515
0.000344591
0.00536004
0.000363014
0.0053437
0.000382383
0.00532599
0.000402717
0.00530678
0.000424036
0.00528592
0.000446351
0.00526322
0.000469669
0.00523849
0.000493987
0.00521149
0.000519294
0.00518196
0.000545566
0.0051496
0.000572768
0.00511407
0.000600848
0.005075
0.000629737
0.00503193
0.000659345
0.00498438
0.000689559
0.0049318
0.000720238
0.00487356
0.000751208
0.00480898
0.000782262
0.00473728
0.000813153
0.00465762
0.000843584