/*--------------------------------*- C++ -*----------------------------------*\
| =========                 |                                                 |
| \\      /  F ield         | OpenFOAM: The Open Source CFD Toolbox           |
|  \\    /   O peration     | Version:  2306                                  |
|   \\  /    A nd           | Website:  www.openfoam.com                      |
|    \\/     M anipulation  |                                                 |
\*---------------------------------------------------------------------------*/
FoamFile
{
    version     2.0;
    format      ascii;
    arch        "LSB;label=32;scalar=64";
    class       volVectorField;
    location    "0.125";
    object      U;
}
// * * * * * * * * * * * * * * * * * * * * * * * * * * * * * * * * * * * * * //

dimensions      [0 1 -1 0 0 0 0];

internalField   nonuniform List<vector> 
17600
(
(9.80708 0.0850067 0)
(9.62283 0.180499 0)
(9.41197 0.217948 0)
(9.14629 0.225577 0)
(8.83439 0.225097 0)
(8.49838 0.225382 0)
(8.15618 0.226732 0)
(7.81674 0.227124 0)
(7.48273 0.225214 0)
(7.1542 0.220811 0)
(6.83074 0.21444 0)
(6.51251 0.206743 0)
(6.20036 0.198148 0)
(5.89563 0.188839 0)
(5.59981 0.178831 0)
(5.31443 0.168111 0)
(5.04081 0.156677 0)
(4.78038 0.14459 0)
(4.53402 0.131869 0)
(4.30254 0.1186 0)
(4.08659 0.104968 0)
(3.88665 0.0912275 0)
(3.70301 0.0776719 0)
(3.53569 0.0645948 0)
(3.38445 0.0522659 0)
(3.2488 0.0409108 0)
(3.12801 0.0306991 0)
(3.02117 0.0217365 0)
(2.92723 0.0140657 0)
(2.84505 0.0076718 0)
(2.77342 0.00249444 0)
(2.71115 -0.00156068 0)
(2.65704 -0.00460757 0)
(2.60998 -0.00677086 0)
(2.56892 -0.0081732 0)
(2.53289 -0.00893648 0)
(2.50104 -0.00917014 0)
(2.47263 -0.00900446 0)
(2.44704 -0.00856051 0)
(2.42374 -0.00793236 0)
(2.40226 -0.00718922 0)
(2.38222 -0.00638239 0)
(2.36331 -0.00555031 0)
(2.34527 -0.00472153 0)
(2.32788 -0.0039167 0)
(2.31101 -0.00315024 0)
(2.29451 -0.00243177 0)
(2.27832 -0.00176725 0)
(2.26235 -0.00115984 0)
(2.24656 -0.000610479 0)
(2.23093 -0.000118355 0)
(2.21542 0.000318688 0)
(2.20004 0.000703803 0)
(2.18477 0.00104081 0)
(2.16961 0.00133391 0)
(2.15457 0.00158746 0)
(2.13964 0.00180584 0)
(2.12483 0.00199325 0)
(2.11015 0.00215372 0)
(2.09559 0.00229098 0)
(2.08116 0.0024085 0)
(2.06685 0.0025094 0)
(2.05267 0.00259654 0)
(2.03861 0.00267246 0)
(2.02467 0.00273942 0)
(2.01085 0.00279942 0)
(1.99713 0.00285422 0)
(1.98351 0.00290537 0)
(1.96999 0.00295423 0)
(1.95654 0.003002 0)
(1.94316 0.00304972 0)
(1.92984 0.0030983 0)
(1.91656 0.00314854 0)
(1.9033 0.00320112 0)
(1.89007 0.00325662 0)
(1.87683 0.0033156 0)
(1.86358 0.00337856 0)
(1.85029 0.003446 0)
(1.83694 0.00351839 0)
(1.82353 0.00359617 0)
(1.81002 0.00367976 0)
(1.79641 0.00376958 0)
(1.78266 0.00386602 0)
(1.76876 0.00396944 0)
(1.75468 0.00408023 0)
(1.7404 0.00419873 0)
(1.7259 0.00432531 0)
(1.71114 0.00446031 0)
(1.69611 0.00460408 0)
(1.68077 0.00475695 0)
(1.6651 0.00491923 0)
(1.64907 0.00509125 0)
(1.63264 0.0052733 0)
(1.61579 0.00546566 0)
(1.59848 0.00566857 0)
(1.58067 0.00588225 0)
(1.56232 0.00610687 0)
(1.54341 0.00634255 0)
(1.5239 0.00658935 0)
(1.50373 0.00684723 0)
(1.48288 0.00711608 0)
(1.46129 0.00739564 0)
(1.43892 0.00768555 0)
(1.41574 0.00798525 0)
(1.39169 0.00829399 0)
(1.36672 0.00861079 0)
(1.34079 0.00893441 0)
(1.31386 0.00926322 0)
(1.28587 0.00959531 0)
(1.25678 0.00992838 0)
(1.22654 0.0102598 0)
(1.19511 0.0105873 0)
(1.16245 0.0109073 0)
(1.12851 0.0112157 0)
(1.09327 0.011508 0)
(1.0567 0.0117789 0)
(1.01876 0.0120225 0)
(0.979457 0.0122319 0)
(0.938771 0.0123994 0)
(0.896713 0.0125162 0)
(0.853301 0.0125729 0)
(0.80857 0.012559 0)
(0.762571 0.0124637 0)
(0.715376 0.0122755 0)
(0.667079 0.0119832 0)
(0.617798 0.0115757 0)
(0.567679 0.0110433 0)
(0.516895 0.0103782 0)
(0.465649 0.00957551 0)
(0.414173 0.00863498 0)
(0.36273 0.00756255 0)
(0.311608 0.00637165 0)
(0.261116 0.00508608 0)
(0.211585 0.00374004 0)
(0.163346 0.00238128 0)
(0.116742 0.00106666 0)
(0.0720753 -0.000135159 0)
(0.0296149 -0.00114607 0)
(-0.0102839 -0.00182729 0)
(-0.0473255 -0.00228359 0)
(-0.0814999 -0.00246187 0)
(-0.112525 -0.00242989 0)
(-0.140169 -0.00232791 0)
(-0.164198 -0.00234132 0)
(-0.184375 -0.00265398 0)
(-0.200525 -0.00337358 0)
(-0.212601 -0.00445306 0)
(-0.220761 -0.00566836 0)
(-0.225473 -0.006792 0)
(-0.227378 -0.00751918 0)
(-0.226831 -0.00776631 0)
(-0.223661 -0.00790224 0)
(-0.217415 -0.00826858 0)
(-0.207436 -0.00904037 0)
(-0.193034 -0.0102587 0)
(-0.173838 -0.0118394 0)
(-0.150493 -0.0131614 0)
(-0.125483 -0.013094 0)
(-0.103179 -0.0107123 0)
(-0.0885543 -0.00602842 0)
(10.0008 0.122279 0)
(10.0676 0.272135 0)
(10.1383 0.342318 0)
(10.1915 0.367548 0)
(10.2161 0.377237 0)
(10.2123 0.385761 0)
(10.1866 0.395773 0)
(10.1458 0.405208 0)
(10.094 0.411954 0)
(10.0331 0.415259 0)
(9.96337 0.415439 0)
(9.88499 0.413183 0)
(9.79817 0.409041 0)
(9.70356 0.403292 0)
(9.60199 0.395979 0)
(9.49448 0.387058 0)
(9.38195 0.376462 0)
(9.26543 0.364181 0)
(9.14567 0.350232 0)
(9.0235 0.334715 0)
(8.89978 0.317814 0)
(8.77532 0.299778 0)
(8.65089 0.280904 0)
(8.52722 0.261512 0)
(8.40495 0.241929 0)
(8.28466 0.222478 0)
(8.16684 0.203459 0)
(8.05194 0.185138 0)
(7.94029 0.16774 0)
(7.83216 0.15144 0)
(7.72772 0.136358 0)
(7.62712 0.122566 0)
(7.53038 0.110089 0)
(7.43751 0.0989135 0)
(7.34841 0.0889901 0)
(7.26302 0.0802525 0)
(7.18113 0.0726105 0)
(7.10259 0.0659846 0)
(7.02725 0.0602948 0)
(6.95494 0.0554525 0)
(6.88549 0.0513604 0)
(6.81872 0.0479183 0)
(6.75446 0.0450293 0)
(6.69253 0.0426042 0)
(6.63276 0.0405641 0)
(6.57502 0.0388409 0)
(6.51915 0.0373773 0)
(6.46503 0.036125 0)
(6.41254 0.0350437 0)
(6.36157 0.0341005 0)
(6.31201 0.033268 0)
(6.26379 0.0325244 0)
(6.21682 0.031852 0)
(6.17101 0.031237 0)
(6.12631 0.0306687 0)
(6.08265 0.0301389 0)
(6.03998 0.0296415 0)
(5.99822 0.029172 0)
(5.95735 0.0287273 0)
(5.9173 0.0283053 0)
(5.87804 0.0279047 0)
(5.83951 0.0275249 0)
(5.80169 0.0271656 0)
(5.76452 0.0268271 0)
(5.72798 0.0265098 0)
(5.69203 0.0262143 0)
(5.65662 0.0259414 0)
(5.62172 0.0256919 0)
(5.5873 0.0254668 0)
(5.55333 0.0252669 0)
(5.51976 0.0250934 0)
(5.48657 0.0249471 0)
(5.45372 0.0248291 0)
(5.42117 0.0247404 0)
(5.38889 0.0246819 0)
(5.35684 0.0246547 0)
(5.325 0.0246598 0)
(5.29331 0.0246981 0)
(5.26175 0.0247708 0)
(5.23028 0.024879 0)
(5.19885 0.025024 0)
(5.16744 0.0252071 0)
(5.13599 0.0254295 0)
(5.10447 0.0256927 0)
(5.07283 0.0259983 0)
(5.04103 0.0263479 0)
(5.00902 0.0267432 0)
(4.97675 0.0271861 0)
(4.94418 0.0276783 0)
(4.91125 0.0282221 0)
(4.87791 0.0288195 0)
(4.8441 0.0294727 0)
(4.80977 0.0301842 0)
(4.77485 0.0309565 0)
(4.73927 0.031792 0)
(4.70298 0.0326935 0)
(4.66589 0.0336637 0)
(4.62795 0.0347056 0)
(4.58906 0.035822 0)
(4.54915 0.0370158 0)
(4.50814 0.0382902 0)
(4.46593 0.039648 0)
(4.42243 0.0410922 0)
(4.37754 0.0426257 0)
(4.33117 0.0442513 0)
(4.2832 0.0459714 0)
(4.23351 0.0477883 0)
(4.182 0.049704 0)
(4.12854 0.0517199 0)
(4.073 0.0538369 0)
(4.01525 0.0560537 0)
(3.95516 0.0583701 0)
(3.89257 0.0607833 0)
(3.82734 0.0632893 0)
(3.75932 0.0658829 0)
(3.68836 0.0685571 0)
(3.61429 0.0713029 0)
(3.53696 0.0741087 0)
(3.4562 0.0769604 0)
(3.37186 0.0798404 0)
(3.28377 0.0827279 0)
(3.19179 0.0855976 0)
(3.09576 0.0884203 0)
(2.99556 0.0911616 0)
(2.89107 0.0937822 0)
(2.78218 0.0962371 0)
(2.66882 0.0984759 0)
(2.55095 0.100442 0)
(2.42856 0.102076 0)
(2.30171 0.103309 0)
(2.17049 0.104073 0)
(2.03509 0.104296 0)
(1.89576 0.103907 0)
(1.75288 0.102833 0)
(1.60692 0.101015 0)
(1.45853 0.0983895 0)
(1.30844 0.0949368 0)
(1.15768 0.0905718 0)
(1.00725 0.0854343 0)
(0.858579 0.0794401 0)
(0.713047 0.0726495 0)
(0.572145 0.0651685 0)
(0.437405 0.0571407 0)
(0.310264 0.0487761 0)
(0.191944 0.0403713 0)
(0.0833757 0.0323079 0)
(-0.0148128 0.0250169 0)
(-0.102327 0.0188306 0)
(-0.17907 0.0136927 0)
(-0.245134 0.00913315 0)
(-0.300693 0.00455913 0)
(-0.345242 -0.000840298 0)
(-0.378761 -0.00783682 0)
(-0.401604 -0.0161572 0)
(-0.414101 -0.0248991 0)
(-0.416281 -0.0332131 0)
(-0.408932 -0.0386031 0)
(-0.395409 -0.0377514 0)
(-0.3818 -0.0289544 0)
(-0.374967 -0.0138469 0)
(10.0003 0.0614113 0)
(10.0359 0.16032 0)
(10.0898 0.227818 0)
(10.1516 0.268444 0)
(10.2101 0.293276 0)
(10.2592 0.312139 0)
(10.2981 0.329997 0)
(10.3293 0.347461 0)
(10.3557 0.363344 0)
(10.3789 0.376545 0)
(10.3993 0.386669 0)
(10.4165 0.393893 0)
(10.4298 0.398601 0)
(10.4389 0.401102 0)
(10.4434 0.401538 0)
(10.4435 0.399919 0)
(10.4392 0.396204 0)
(10.4305 0.390371 0)
(10.4175 0.382481 0)
(10.4002 0.372664 0)
(10.379 0.361106 0)
(10.3538 0.348039 0)
(10.325 0.333732 0)
(10.2928 0.318485 0)
(10.2574 0.302607 0)
(10.2193 0.286415 0)
(10.1787 0.270207 0)
(10.1361 0.254263 0)
(10.0917 0.238821 0)
(10.0459 0.224079 0)
(9.99906 0.210182 0)
(9.9515 0.197231 0)
(9.90344 0.185278 0)
(9.85514 0.17434 0)
(9.80677 0.164396 0)
(9.75852 0.155407 0)
(9.71047 0.147313 0)
(9.66276 0.140061 0)
(9.61547 0.133594 0)
(9.56863 0.127848 0)
(9.52226 0.122749 0)
(9.47637 0.118217 0)
(9.43096 0.114176 0)
(9.38603 0.110552 0)
(9.34157 0.107283 0)
(9.29757 0.104313 0)
(9.25402 0.101595 0)
(9.2109 0.0990905 0)
(9.16821 0.0967672 0)
(9.12593 0.094598 0)
(9.08404 0.0925607 0)
(9.04253 0.0906374 0)
(9.00138 0.0888135 0)
(8.9606 0.0870773 0)
(8.92016 0.0854199 0)
(8.88006 0.0838343 0)
(8.84028 0.082315 0)
(8.80082 0.0808584 0)
(8.76167 0.0794615 0)
(8.72282 0.0781225 0)
(8.68427 0.0768403 0)
(8.64599 0.0756142 0)
(8.60799 0.074444 0)
(8.57025 0.07333 0)
(8.53277 0.0722725 0)
(8.49552 0.0712723 0)
(8.45851 0.0703302 0)
(8.42172 0.0694471 0)
(8.38512 0.068624 0)
(8.34872 0.0678622 0)
(8.31249 0.0671629 0)
(8.27643 0.0665273 0)
(8.2405 0.0659571 0)
(8.20469 0.0654536 0)
(8.16898 0.0650186 0)
(8.13335 0.0646539 0)
(8.09779 0.0643613 0)
(8.06225 0.0641428 0)
(8.02672 0.0640004 0)
(7.99118 0.0639363 0)
(7.95558 0.0639528 0)
(7.91992 0.0640525 0)
(7.88414 0.064238 0)
(7.84821 0.0645122 0)
(7.81211 0.0648782 0)
(7.7758 0.0653394 0)
(7.73923 0.0658993 0)
(7.70235 0.0665619 0)
(7.66514 0.0673312 0)
(7.62754 0.0682116 0)
(7.58949 0.069208 0)
(7.55095 0.0703252 0)
(7.51187 0.0715687 0)
(7.47217 0.0729443 0)
(7.43181 0.0744578 0)
(7.39071 0.0761158 0)
(7.3488 0.077925 0)
(7.306 0.0798926 0)
(7.26225 0.082026 0)
(7.21745 0.0843331 0)
(7.17152 0.0868221 0)
(7.12436 0.0895016 0)
(7.07587 0.0923803 0)
(7.02596 0.0954676 0)
(6.97449 0.0987726 0)
(6.92136 0.102305 0)
(6.86645 0.106075 0)
(6.80961 0.110091 0)
(6.7507 0.114365 0)
(6.68959 0.118904 0)
(6.6261 0.123718 0)
(6.56007 0.128814 0)
(6.49132 0.1342 0)
(6.41967 0.139883 0)
(6.34492 0.145866 0)
(6.26687 0.152152 0)
(6.18528 0.158742 0)
(6.09995 0.165633 0)
(6.01061 0.17282 0)
(5.91703 0.180292 0)
(5.81894 0.188036 0)
(5.71606 0.196032 0)
(5.60811 0.204254 0)
(5.49481 0.212669 0)
(5.37585 0.221236 0)
(5.25092 0.229903 0)
(5.11972 0.238609 0)
(4.98194 0.247278 0)
(4.83728 0.255824 0)
(4.68543 0.264142 0)
(4.52612 0.272114 0)
(4.35911 0.279598 0)
(4.18414 0.286439 0)
(4.00108 0.292451 0)
(3.80978 0.297438 0)
(3.61024 0.301158 0)
(3.40248 0.303375 0)
(3.18677 0.303788 0)
(2.96337 0.30213 0)
(2.73287 0.29809 0)
(2.49603 0.291382 0)
(2.25391 0.281765 0)
(2.00786 0.269071 0)
(1.75968 0.25325 0)
(1.51161 0.234427 0)
(1.26642 0.212915 0)
(1.02737 0.189262 0)
(0.798229 0.16418 0)
(0.58295 0.138535 0)
(0.385374 0.113179 0)
(0.208477 0.0890144 0)
(0.0533494 0.0669158 0)
(-0.0810503 0.0468234 0)
(-0.195759 0.0277158 0)
(-0.29165 0.00813645 0)
(-0.367738 -0.0116214 0)
(-0.423701 -0.0286201 0)
(-0.463112 -0.0367078 0)
(-0.491763 -0.0297008 0)
(-0.516652 -0.00884638 0)
(10.0002 0.04178 0)
(10.0198 0.117272 0)
(10.0537 0.17891 0)
(10.0983 0.224493 0)
(10.1468 0.256557 0)
(10.1935 0.280033 0)
(10.2356 0.299291 0)
(10.2732 0.316662 0)
(10.3082 0.332532 0)
(10.3422 0.346395 0)
(10.376 0.357764 0)
(10.4097 0.366499 0)
(10.4428 0.37276 0)
(10.4749 0.376798 0)
(10.5056 0.378811 0)
(10.5345 0.378898 0)
(10.5617 0.377097 0)
(10.5868 0.373435 0)
(10.6097 0.367978 0)
(10.6302 0.360833 0)
(10.6483 0.352147 0)
(10.6638 0.342102 0)
(10.6765 0.330911 0)
(10.6865 0.318807 0)
(10.6937 0.306041 0)
(10.6982 0.292865 0)
(10.7001 0.279527 0)
(10.6996 0.266257 0)
(10.6967 0.253262 0)
(10.6918 0.240713 0)
(10.685 0.228753 0)
(10.6765 0.217482 0)
(10.6666 0.206973 0)
(10.6554 0.197263 0)
(10.6432 0.188365 0)
(10.6301 0.180269 0)
(10.6163 0.17295 0)
(10.6018 0.166363 0)
(10.5869 0.160446 0)
(10.5714 0.155137 0)
(10.5556 0.150376 0)
(10.5394 0.146103 0)
(10.5229 0.142261 0)
(10.5061 0.138799 0)
(10.489 0.135667 0)
(10.4717 0.132822 0)
(10.4541 0.130225 0)
(10.4363 0.127842 0)
(10.4183 0.125642 0)
(10.4 0.123601 0)
(10.3815 0.121697 0)
(10.3628 0.11991 0)
(10.3439 0.118225 0)
(10.3247 0.11663 0)
(10.3053 0.115114 0)
(10.2857 0.113669 0)
(10.2658 0.112289 0)
(10.2457 0.110968 0)
(10.2254 0.109703 0)
(10.2049 0.108492 0)
(10.1842 0.107333 0)
(10.1633 0.106225 0)
(10.1421 0.105169 0)
(10.1207 0.104165 0)
(10.0991 0.103213 0)
(10.0773 0.102315 0)
(10.0553 0.101473 0)
(10.0331 0.100688 0)
(10.0107 0.0999625 0)
(9.98804 0.0992984 0)
(9.96517 0.0986982 0)
(9.94209 0.0981646 0)
(9.91878 0.0977003 0)
(9.89524 0.0973082 0)
(9.87146 0.0969914 0)
(9.84743 0.0967533 0)
(9.82315 0.0965974 0)
(9.7986 0.0965274 0)
(9.77377 0.0965472 0)
(9.74864 0.0966607 0)
(9.72321 0.0968724 0)
(9.69745 0.0971866 0)
(9.67135 0.0976081 0)
(9.64489 0.098142 0)
(9.61804 0.0987936 0)
(9.59078 0.0995685 0)
(9.56308 0.100473 0)
(9.53492 0.101513 0)
(9.50626 0.102695 0)
(9.47708 0.104027 0)
(9.44732 0.105517 0)
(9.41697 0.107172 0)
(9.38597 0.109001 0)
(9.35428 0.111013 0)
(9.32185 0.113217 0)
(9.28864 0.115625 0)
(9.25458 0.118246 0)
(9.21961 0.121093 0)
(9.18368 0.124176 0)
(9.14671 0.127509 0)
(9.10863 0.131105 0)
(9.06936 0.134979 0)
(9.02882 0.139143 0)
(8.98693 0.143614 0)
(8.94357 0.148408 0)
(8.89866 0.15354 0)
(8.85207 0.159028 0)
(8.8037 0.164889 0)
(8.75342 0.171141 0)
(8.70109 0.177803 0)
(8.64656 0.184891 0)
(8.5897 0.192425 0)
(8.53032 0.200423 0)
(8.46826 0.208902 0)
(8.40333 0.21788 0)
(8.33532 0.227372 0)
(8.26402 0.237392 0)
(8.18921 0.247952 0)
(8.11063 0.259063 0)
(8.02804 0.270729 0)
(7.94114 0.282955 0)
(7.84965 0.295736 0)
(7.75325 0.309066 0)
(7.65161 0.322928 0)
(7.54438 0.337301 0)
(7.43117 0.352151 0)
(7.31159 0.367434 0)
(7.18523 0.383094 0)
(7.05165 0.399059 0)
(6.91039 0.415239 0)
(6.76098 0.431528 0)
(6.60292 0.447794 0)
(6.43571 0.463883 0)
(6.25885 0.479611 0)
(6.0718 0.494767 0)
(5.87408 0.5091 0)
(5.66517 0.52233 0)
(5.44465 0.53413 0)
(5.21209 0.544136 0)
(4.96715 0.55194 0)
(4.70958 0.557091 0)
(4.43929 0.55911 0)
(4.1563 0.557494 0)
(3.86091 0.55171 0)
(3.55368 0.541216 0)
(3.23554 0.525466 0)
(2.90788 0.50396 0)
(2.57264 0.476299 0)
(2.23256 0.442285 0)
(1.89132 0.402072 0)
(1.55384 0.356258 0)
(1.22626 0.306023 0)
(0.915585 0.253051 0)
(0.629123 0.198768 0)
(0.373766 0.144092 0)
(0.153598 0.0924643 0)
(-0.0316554 0.0506246 0)
(-0.181269 0.0263789 0)
(-0.295715 0.0238738 0)
(-0.383846 0.0404505 0)
(10.0001 0.0316612 0)
(10.0128 0.0917366 0)
(10.036 0.14503 0)
(10.0682 0.188687 0)
(10.1059 0.222268 0)
(10.1451 0.2477 0)
(10.183 0.267791 0)
(10.2184 0.284842 0)
(10.2518 0.29995 0)
(10.2843 0.313246 0)
(10.3169 0.324475 0)
(10.3498 0.333424 0)
(10.383 0.340078 0)
(10.4162 0.344572 0)
(10.449 0.347085 0)
(10.4812 0.347766 0)
(10.5125 0.346719 0)
(10.5428 0.344021 0)
(10.572 0.33975 0)
(10.5999 0.334007 0)
(10.6265 0.326919 0)
(10.6515 0.318641 0)
(10.6748 0.309352 0)
(10.6963 0.299246 0)
(10.7159 0.288531 0)
(10.7336 0.277418 0)
(10.7494 0.266114 0)
(10.7634 0.254811 0)
(10.7756 0.243686 0)
(10.7861 0.232889 0)
(10.7951 0.222546 0)
(10.8027 0.212752 0)
(10.809 0.203577 0)
(10.8143 0.195064 0)
(10.8185 0.187235 0)
(10.822 0.180089 0)
(10.8247 0.173608 0)
(10.8268 0.167757 0)
(10.8284 0.162491 0)
(10.8294 0.157759 0)
(10.8301 0.153515 0)
(10.8304 0.149713 0)
(10.8303 0.146309 0)
(10.8299 0.143261 0)
(10.8292 0.140529 0)
(10.8282 0.138074 0)
(10.8269 0.135862 0)
(10.8254 0.13386 0)
(10.8236 0.13204 0)
(10.8215 0.130378 0)
(10.8192 0.128851 0)
(10.8166 0.127442 0)
(10.8137 0.126135 0)
(10.8105 0.124917 0)
(10.807 0.123777 0)
(10.8033 0.122707 0)
(10.7992 0.1217 0)
(10.7949 0.120751 0)
(10.7902 0.119857 0)
(10.7852 0.119014 0)
(10.78 0.118221 0)
(10.7744 0.117477 0)
(10.7685 0.116783 0)
(10.7623 0.116139 0)
(10.7558 0.115546 0)
(10.7489 0.115005 0)
(10.7418 0.114519 0)
(10.7343 0.11409 0)
(10.7265 0.11372 0)
(10.7184 0.113412 0)
(10.7099 0.11317 0)
(10.7011 0.112995 0)
(10.692 0.112893 0)
(10.6825 0.112867 0)
(10.6727 0.11292 0)
(10.6626 0.113056 0)
(10.652 0.113281 0)
(10.6412 0.113599 0)
(10.6299 0.114016 0)
(10.6182 0.114535 0)
(10.6062 0.115163 0)
(10.5937 0.115906 0)
(10.5809 0.11677 0)
(10.5676 0.117762 0)
(10.5538 0.118888 0)
(10.5396 0.120156 0)
(10.5249 0.121574 0)
(10.5097 0.123151 0)
(10.4939 0.124894 0)
(10.4776 0.126815 0)
(10.4608 0.128921 0)
(10.4433 0.131225 0)
(10.4252 0.133738 0)
(10.4064 0.136471 0)
(10.3869 0.139437 0)
(10.3667 0.142649 0)
(10.3457 0.146122 0)
(10.3239 0.149871 0)
(10.3012 0.153911 0)
(10.2776 0.158259 0)
(10.253 0.162933 0)
(10.2274 0.167952 0)
(10.2006 0.173335 0)
(10.1727 0.179103 0)
(10.1436 0.185277 0)
(10.1131 0.191879 0)
(10.0812 0.198933 0)
(10.0478 0.206464 0)
(10.0128 0.214497 0)
(9.97614 0.223058 0)
(9.93763 0.232173 0)
(9.89718 0.241871 0)
(9.85465 0.252179 0)
(9.80991 0.263126 0)
(9.76279 0.27474 0)
(9.71314 0.28705 0)
(9.66076 0.300083 0)
(9.60548 0.313865 0)
(9.54708 0.328423 0)
(9.48535 0.343779 0)
(9.42002 0.359955 0)
(9.35086 0.376967 0)
(9.27756 0.394829 0)
(9.19984 0.413548 0)
(9.11736 0.433125 0)
(9.02977 0.453553 0)
(8.93668 0.474815 0)
(8.83769 0.496883 0)
(8.73235 0.519716 0)
(8.62018 0.543256 0)
(8.50068 0.567429 0)
(8.37329 0.592137 0)
(8.23744 0.61726 0)
(8.0925 0.642647 0)
(7.9378 0.668121 0)
(7.77265 0.693464 0)
(7.59631 0.71842 0)
(7.40801 0.742688 0)
(7.20694 0.765914 0)
(6.99229 0.787692 0)
(6.76321 0.807555 0)
(6.5189 0.824979 0)
(6.25854 0.839381 0)
(5.98138 0.850123 0)
(5.68677 0.856508 0)
(5.37418 0.857795 0)
(5.04335 0.853193 0)
(4.69424 0.841887 0)
(4.32723 0.823062 0)
(3.94322 0.795893 0)
(3.54377 0.759564 0)
(3.13126 0.713289 0)
(2.709 0.656426 0)
(2.28142 0.588558 0)
(1.85447 0.509838 0)
(1.43586 0.421218 0)
(1.03562 0.326654 0)
(0.669976 0.236396 0)
(0.359883 0.168774 0)
(0.118472 0.142943 0)
(10.0001 0.0253309 0)
(10.0092 0.0742877 0)
(10.0261 0.119431 0)
(10.0502 0.158576 0)
(10.0797 0.190679 0)
(10.1121 0.216171 0)
(10.1451 0.236505 0)
(10.1773 0.253324 0)
(10.2083 0.26781 0)
(10.2386 0.28046 0)
(10.2688 0.291283 0)
(10.2993 0.300131 0)
(10.3302 0.306919 0)
(10.3612 0.311685 0)
(10.3921 0.314557 0)
(10.4227 0.315691 0)
(10.4527 0.315219 0)
(10.4821 0.313251 0)
(10.5107 0.309881 0)
(10.5383 0.305204 0)
(10.565 0.299336 0)
(10.5906 0.292408 0)
(10.6149 0.284573 0)
(10.6379 0.275998 0)
(10.6595 0.266858 0)
(10.6797 0.257334 0)
(10.6984 0.247601 0)
(10.7157 0.237824 0)
(10.7316 0.228157 0)
(10.7462 0.218731 0)
(10.7596 0.209658 0)
(10.7719 0.201027 0)
(10.7832 0.192903 0)
(10.7936 0.185331 0)
(10.8032 0.178334 0)
(10.8122 0.171918 0)
(10.8206 0.16607 0)
(10.8285 0.160769 0)
(10.836 0.155982 0)
(10.8431 0.151673 0)
(10.8499 0.147805 0)
(10.8564 0.144341 0)
(10.8627 0.141246 0)
(10.8688 0.138486 0)
(10.8746 0.136024 0)
(10.8803 0.133828 0)
(10.8858 0.131867 0)
(10.8912 0.130111 0)
(10.8963 0.128535 0)
(10.9014 0.127115 0)
(10.9062 0.125831 0)
(10.9109 0.124667 0)
(10.9154 0.123608 0)
(10.9197 0.122641 0)
(10.9238 0.121756 0)
(10.9277 0.120944 0)
(10.9315 0.1202 0)
(10.935 0.119519 0)
(10.9383 0.118895 0)
(10.9414 0.118328 0)
(10.9443 0.117814 0)
(10.9469 0.117355 0)
(10.9493 0.116948 0)
(10.9515 0.116596 0)
(10.9534 0.116298 0)
(10.9551 0.116058 0)
(10.9566 0.115876 0)
(10.9577 0.115755 0)
(10.9587 0.115698 0)
(10.9593 0.115708 0)
(10.9597 0.115788 0)
(10.9599 0.115942 0)
(10.9597 0.116174 0)
(10.9593 0.116487 0)
(10.9586 0.116887 0)
(10.9575 0.117378 0)
(10.9562 0.117964 0)
(10.9546 0.118652 0)
(10.9527 0.119447 0)
(10.9504 0.120355 0)
(10.9478 0.121382 0)
(10.9448 0.122535 0)
(10.9415 0.123821 0)
(10.9379 0.125248 0)
(10.9339 0.126824 0)
(10.9294 0.128558 0)
(10.9246 0.130458 0)
(10.9193 0.132534 0)
(10.9137 0.134797 0)
(10.9075 0.137258 0)
(10.9009 0.139928 0)
(10.8938 0.14282 0)
(10.8862 0.145946 0)
(10.878 0.149321 0)
(10.8693 0.15296 0)
(10.86 0.156879 0)
(10.8501 0.161093 0)
(10.8395 0.165622 0)
(10.8282 0.170483 0)
(10.8162 0.175696 0)
(10.8035 0.181284 0)
(10.7899 0.187267 0)
(10.7755 0.193669 0)
(10.7602 0.200515 0)
(10.7439 0.207831 0)
(10.7267 0.215644 0)
(10.7083 0.223984 0)
(10.6889 0.232879 0)
(10.6682 0.242363 0)
(10.6463 0.252466 0)
(10.623 0.263224 0)
(10.5982 0.274671 0)
(10.5719 0.286846 0)
(10.544 0.299783 0)
(10.5143 0.313523 0)
(10.4827 0.328104 0)
(10.4491 0.343566 0)
(10.4133 0.359949 0)
(10.3752 0.377291 0)
(10.3347 0.395633 0)
(10.2915 0.41501 0)
(10.2454 0.435459 0)
(10.1962 0.457013 0)
(10.1437 0.4797 0)
(10.0876 0.503545 0)
(10.0276 0.528566 0)
(9.96347 0.554774 0)
(9.89479 0.582172 0)
(9.82121 0.61075 0)
(9.74232 0.640487 0)
(9.65766 0.671343 0)
(9.56675 0.703262 0)
(9.46905 0.736166 0)
(9.36396 0.76995 0)
(9.25085 0.80448 0)
(9.12901 0.839588 0)
(8.99768 0.875066 0)
(8.85602 0.910664 0)
(8.70314 0.946084 0)
(8.53805 0.980975 0)
(8.35973 1.01493 0)
(8.16705 1.04749 0)
(7.95887 1.0781 0)
(7.73393 1.10617 0)
(7.49098 1.13104 0)
(7.22875 1.15196 0)
(6.94596 1.1681 0)
(6.64142 1.17853 0)
(6.31402 1.18223 0)
(5.96282 1.17808 0)
(5.58715 1.16486 0)
(5.1867 1.14128 0)
(4.76163 1.10603 0)
(4.31271 1.05786 0)
(3.84154 0.995734 0)
(3.35079 0.918892 0)
(2.84413 0.827068 0)
(2.32689 0.721051 0)
(1.80868 0.604195 0)
(1.31026 0.487635 0)
(10.0001 0.0208349 0)
(10.007 0.0614999 0)
(10.02 0.0997187 0)
(10.0387 0.134089 0)
(10.0623 0.163598 0)
(10.0892 0.188063 0)
(10.1177 0.208071 0)
(10.1466 0.224607 0)
(10.1752 0.238621 0)
(10.2033 0.250703 0)
(10.2314 0.261057 0)
(10.2597 0.269654 0)
(10.2882 0.276422 0)
(10.3171 0.281354 0)
(10.3459 0.284526 0)
(10.3746 0.286065 0)
(10.4028 0.286106 0)
(10.4306 0.284771 0)
(10.4576 0.282162 0)
(10.4839 0.27838 0)
(10.5094 0.273526 0)
(10.534 0.267718 0)
(10.5575 0.261087 0)
(10.58 0.253776 0)
(10.6012 0.245935 0)
(10.6213 0.237719 0)
(10.6401 0.229278 0)
(10.6578 0.220757 0)
(10.6743 0.212287 0)
(10.6897 0.203985 0)
(10.704 0.19595 0)
(10.7174 0.188264 0)
(10.73 0.180989 0)
(10.7418 0.174169 0)
(10.7529 0.167828 0)
(10.7634 0.161978 0)
(10.7734 0.156614 0)
(10.783 0.151725 0)
(10.7922 0.147289 0)
(10.8011 0.14328 0)
(10.8097 0.139671 0)
(10.8181 0.136431 0)
(10.8263 0.133532 0)
(10.8344 0.130944 0)
(10.8423 0.128637 0)
(10.85 0.126582 0)
(10.8577 0.124752 0)
(10.8652 0.123122 0)
(10.8726 0.121667 0)
(10.88 0.120367 0)
(10.8872 0.119205 0)
(10.8943 0.118164 0)
(10.9013 0.117231 0)
(10.9083 0.116395 0)
(10.9151 0.115646 0)
(10.9217 0.114975 0)
(10.9283 0.114378 0)
(10.9347 0.113848 0)
(10.941 0.113382 0)
(10.9472 0.112979 0)
(10.9532 0.112635 0)
(10.9591 0.11235 0)
(10.9648 0.112124 0)
(10.9704 0.111958 0)
(10.9758 0.111852 0)
(10.981 0.111808 0)
(10.9861 0.111828 0)
(10.991 0.111915 0)
(10.9957 0.112072 0)
(11.0003 0.1123 0)
(11.0047 0.112605 0)
(11.0088 0.112989 0)
(11.0128 0.113458 0)
(11.0166 0.114014 0)
(11.0202 0.114663 0)
(11.0235 0.11541 0)
(11.0267 0.11626 0)
(11.0296 0.117219 0)
(11.0323 0.118294 0)
(11.0348 0.119489 0)
(11.037 0.120813 0)
(11.039 0.122272 0)
(11.0407 0.123875 0)
(11.0421 0.12563 0)
(11.0433 0.127545 0)
(11.0442 0.12963 0)
(11.0448 0.131894 0)
(11.045 0.134349 0)
(11.045 0.137006 0)
(11.0446 0.139877 0)
(11.0439 0.142974 0)
(11.0428 0.146311 0)
(11.0413 0.149903 0)
(11.0394 0.153765 0)
(11.0372 0.157913 0)
(11.0345 0.162364 0)
(11.0313 0.167138 0)
(11.0276 0.172253 0)
(11.0235 0.17773 0)
(11.0188 0.183591 0)
(11.0136 0.18986 0)
(11.0078 0.196561 0)
(11.0014 0.203721 0)
(10.9944 0.211366 0)
(10.9867 0.219527 0)
(10.9782 0.228233 0)
(10.969 0.237517 0)
(10.959 0.247413 0)
(10.9482 0.257957 0)
(10.9365 0.269185 0)
(10.9238 0.281138 0)
(10.9101 0.293857 0)
(10.8954 0.307384 0)
(10.8795 0.321762 0)
(10.8624 0.337038 0)
(10.844 0.353259 0)
(10.8242 0.370473 0)
(10.8029 0.388731 0)
(10.7801 0.408081 0)
(10.7556 0.428575 0)
(10.7292 0.450264 0)
(10.701 0.473198 0)
(10.6706 0.497425 0)
(10.6379 0.522993 0)
(10.6028 0.549947 0)
(10.5651 0.578328 0)
(10.5244 0.608171 0)
(10.4807 0.639506 0)
(10.4336 0.672355 0)
(10.3827 0.70673 0)
(10.3278 0.74263 0)
(10.2685 0.780041 0)
(10.2044 0.818928 0)
(10.1349 0.85924 0)
(10.0596 0.900895 0)
(9.97778 0.943788 0)
(9.88892 0.987776 0)
(9.79223 1.03268 0)
(9.68689 1.07828 0)
(9.572 1.12431 0)
(9.44656 1.17045 0)
(9.30946 1.21631 0)
(9.1595 1.26144 0)
(8.99536 1.30533 0)
(8.8156 1.34738 0)
(8.61869 1.38691 0)
(8.40299 1.42313 0)
(8.16679 1.45519 0)
(7.90829 1.48208 0)
(7.62567 1.50271 0)
(7.31708 1.51581 0)
(6.98071 1.5201 0)
(6.6149 1.51408 0)
(6.21811 1.49624 0)
(5.78924 1.46501 0)
(5.32749 1.41891 0)
(4.83282 1.35674 0)
(4.30591 1.27781 0)
(3.74936 1.18246 0)
(3.16886 1.07141 0)
(10.0001 0.0174396 0)
(10.0056 0.0516699 0)
(10.016 0.0842346 0)
(10.0311 0.114203 0)
(10.0504 0.140769 0)
(10.0729 0.163559 0)
(10.0976 0.182708 0)
(10.1234 0.198722 0)
(10.1494 0.212239 0)
(10.1756 0.223779 0)
(10.2017 0.23363 0)
(10.2281 0.241867 0)
(10.2547 0.248474 0)
(10.2816 0.253439 0)
(10.3086 0.256804 0)
(10.3355 0.25866 0)
(10.3621 0.259126 0)
(10.3883 0.25832 0)
(10.414 0.256349 0)
(10.439 0.253311 0)
(10.4633 0.249305 0)
(10.4868 0.244436 0)
(10.5094 0.238817 0)
(10.5311 0.232572 0)
(10.5517 0.225832 0)
(10.5713 0.218729 0)
(10.5898 0.211394 0)
(10.6073 0.203951 0)
(10.6238 0.196516 0)
(10.6393 0.18919 0)
(10.6538 0.182063 0)
(10.6676 0.175208 0)
(10.6805 0.168683 0)
(10.6927 0.16253 0)
(10.7043 0.156776 0)
(10.7153 0.151436 0)
(10.7258 0.146512 0)
(10.7359 0.141999 0)
(10.7457 0.137885 0)
(10.7551 0.134151 0)
(10.7643 0.130776 0)
(10.7733 0.127738 0)
(10.7821 0.12501 0)
(10.7907 0.122569 0)
(10.7991 0.12039 0)
(10.8075 0.118447 0)
(10.8157 0.116716 0)
(10.8238 0.115177 0)
(10.8318 0.113809 0)
(10.8398 0.112592 0)
(10.8476 0.111512 0)
(10.8554 0.110553 0)
(10.8631 0.109703 0)
(10.8707 0.108953 0)
(10.8783 0.108293 0)
(10.8857 0.107715 0)
(10.893 0.107214 0)
(10.9003 0.106785 0)
(10.9075 0.106424 0)
(10.9145 0.10613 0)
(10.9215 0.105899 0)
(10.9283 0.105732 0)
(10.9351 0.105628 0)
(10.9417 0.105588 0)
(10.9482 0.105613 0)
(10.9547 0.105704 0)
(10.9609 0.105863 0)
(10.9671 0.106093 0)
(10.9731 0.106396 0)
(10.979 0.106777 0)
(10.9848 0.107237 0)
(10.9904 0.107782 0)
(10.9959 0.108415 0)
(11.0012 0.109141 0)
(11.0064 0.109966 0)
(11.0114 0.110893 0)
(11.0163 0.111929 0)
(11.021 0.11308 0)
(11.0255 0.114352 0)
(11.0299 0.115752 0)
(11.0341 0.117287 0)
(11.0381 0.118965 0)
(11.0419 0.120795 0)
(11.0455 0.122784 0)
(11.0488 0.124943 0)
(11.052 0.12728 0)
(11.055 0.129808 0)
(11.0577 0.132536 0)
(11.0602 0.135477 0)
(11.0624 0.138644 0)
(11.0644 0.14205 0)
(11.0661 0.14571 0)
(11.0676 0.149638 0)
(11.0687 0.153851 0)
(11.0695 0.158367 0)
(11.07 0.163203 0)
(11.0702 0.16838 0)
(11.07 0.173917 0)
(11.0695 0.179837 0)
(11.0686 0.186163 0)
(11.0673 0.19292 0)
(11.0655 0.200134 0)
(11.0633 0.207833 0)
(11.0607 0.216046 0)
(11.0576 0.224804 0)
(11.054 0.23414 0)
(11.0498 0.244088 0)
(11.0451 0.254685 0)
(11.0398 0.265969 0)
(11.0338 0.277981 0)
(11.0272 0.290762 0)
(11.02 0.304357 0)
(11.012 0.318814 0)
(11.0032 0.334178 0)
(10.9936 0.350503 0)
(10.9831 0.367838 0)
(10.9717 0.38624 0)
(10.9594 0.405763 0)
(10.946 0.426465 0)
(10.9315 0.448405 0)
(10.9158 0.471643 0)
(10.8989 0.496239 0)
(10.8806 0.522253 0)
(10.8609 0.549746 0)
(10.8395 0.578777 0)
(10.8165 0.609403 0)
(10.7917 0.641681 0)
(10.7649 0.67566 0)
(10.7358 0.711388 0)
(10.7045 0.748903 0)
(10.6705 0.788237 0)
(10.6337 0.82941 0)
(10.5937 0.87243 0)
(10.5502 0.917291 0)
(10.5029 0.963963 0)
(10.4513 1.0124 0)
(10.3949 1.06253 0)
(10.3332 1.11424 0)
(10.2655 1.1674 0)
(10.1911 1.22183 0)
(10.1092 1.2773 0)
(10.0188 1.33355 0)
(9.91899 1.39023 0)
(9.80849 1.44695 0)
(9.68604 1.50324 0)
(9.55016 1.55852 0)
(9.39927 1.61216 0)
(9.23155 1.66339 0)
(9.04514 1.71135 0)
(8.83786 1.75501 0)
(8.60755 1.79326 0)
(8.35173 1.82482 0)
(8.068 1.84833 0)
(7.7537 1.86224 0)
(7.40634 1.865 0)
(7.02341 1.85495 0)
(6.60263 1.83056 0)
(6.14236 1.79037 0)
(5.64147 1.73312 0)
(5.10058 1.65759 0)
(10 0.014762 0)
(10.0046 0.043831 0)
(10.0132 0.0717361 0)
(10.0257 0.0977908 0)
(10.0419 0.121404 0)
(10.0611 0.142185 0)
(10.0826 0.160061 0)
(10.1056 0.175246 0)
(10.1293 0.188117 0)
(10.1535 0.199065 0)
(10.1779 0.208367 0)
(10.2025 0.216162 0)
(10.2275 0.222489 0)
(10.2527 0.227353 0)
(10.278 0.230785 0)
(10.3033 0.232848 0)
(10.3285 0.233637 0)
(10.3534 0.233257 0)
(10.3778 0.231809 0)
(10.4017 0.229392 0)
(10.425 0.226099 0)
(10.4475 0.222025 0)
(10.4693 0.217272 0)
(10.4902 0.211948 0)
(10.5103 0.206165 0)
(10.5294 0.200036 0)
(10.5477 0.193676 0)
(10.5649 0.187191 0)
(10.5813 0.180681 0)
(10.5968 0.174238 0)
(10.6114 0.167939 0)
(10.6253 0.16185 0)
(10.6384 0.156025 0)
(10.6508 0.150504 0)
(10.6627 0.145314 0)
(10.674 0.140472 0)
(10.6848 0.135987 0)
(10.6952 0.131857 0)
(10.7053 0.128075 0)
(10.715 0.12463 0)
(10.7245 0.121505 0)
(10.7337 0.118683 0)
(10.7427 0.116143 0)
(10.7515 0.113863 0)
(10.7602 0.111825 0)
(10.7687 0.110005 0)
(10.7771 0.108386 0)
(10.7854 0.106946 0)
(10.7936 0.10567 0)
(10.8018 0.10454 0)
(10.8098 0.103543 0)
(10.8177 0.102666 0)
(10.8256 0.101897 0)
(10.8333 0.101227 0)
(10.841 0.100649 0)
(10.8486 0.100154 0)
(10.8562 0.0997377 0)
(10.8636 0.0993957 0)
(10.871 0.0991245 0)
(10.8782 0.0989216 0)
(10.8854 0.0987855 0)
(10.8925 0.0987153 0)
(10.8995 0.0987111 0)
(10.9064 0.0987731 0)
(10.9132 0.0989027 0)
(10.9199 0.0991012 0)
(10.9265 0.0993708 0)
(10.933 0.099714 0)
(10.9394 0.100134 0)
(10.9457 0.100633 0)
(10.9518 0.101216 0)
(10.9579 0.101886 0)
(10.9638 0.102648 0)
(10.9696 0.103507 0)
(10.9753 0.104467 0)
(10.9808 0.105535 0)
(10.9863 0.106715 0)
(10.9916 0.108014 0)
(10.9967 0.109439 0)
(11.0017 0.110997 0)
(11.0066 0.112695 0)
(11.0113 0.114542 0)
(11.0158 0.116546 0)
(11.0202 0.118716 0)
(11.0244 0.121062 0)
(11.0285 0.123594 0)
(11.0323 0.126323 0)
(11.036 0.12926 0)
(11.0395 0.132419 0)