/*--------------------------------*- C++ -*----------------------------------*\
| =========                 |                                                 |
| \\      /  F ield         | OpenFOAM: The Open Source CFD Toolbox           |
|  \\    /   O peration     | Version:  2306                                  |
|   \\  /    A nd           | Website:  www.openfoam.com                      |
|    \\/     M anipulation  |                                                 |
\*---------------------------------------------------------------------------*/
FoamFile
{
    version     2.0;
    format      ascii;
    arch        "LSB;label=32;scalar=64";
    class       volScalarField;
    location    "0.025";
    object      p;
}
// * * * * * * * * * * * * * * * * * * * * * * * * * * * * * * * * * * * * * //

dimensions      [0 2 -2 0 0 0 0];

internalField   nonuniform List<scalar> 
17600
(
375.239
373.194
371.415
370.182
369.415
368.903
368.48
368.066
367.64
367.207
366.775
366.351
365.936
365.527
365.124
364.727
364.332
363.946
363.58
363.235
362.91
362.61
362.341
362.105
361.904
361.736
361.6
361.497
361.426
361.387
361.372
361.378
361.398
361.424
361.454
361.48
361.498
361.506
361.504
361.49
361.466
361.432
361.389
361.339
361.283
361.223
361.16
361.094
361.027
360.959
360.891
360.823
360.756
360.689
360.623
360.557
360.492
360.427
360.362
360.298
360.234
360.17
360.106
360.042
359.978
359.914
359.851
359.787
359.724
359.661
359.598
359.535
359.472
359.41
359.348
359.287
359.225
359.165
359.104
359.044
358.985
358.926
358.868
358.81
358.753
358.697
358.641
358.587
358.533
358.48
358.428
358.378
358.328
358.28
358.234
358.188
358.145
358.103
358.062
358.024
357.988
357.954
357.923
357.894
357.868
357.845
357.825
357.808
357.795
357.786
357.781
357.781
357.785
357.794
357.809
357.829
357.856
357.889
357.929
357.976
358.032
358.095
358.168
358.251
358.343
358.446
358.56
358.687
358.826
358.978
359.144
359.325
359.522
359.735
359.966
360.214
360.481
360.767
361.074
361.401
361.751
362.123
362.518
362.937
363.38
363.848
364.342
364.861
365.406
365.978
366.575
367.2
367.85
368.526
369.229
369.957
370.709
371.486
372.287
373.11
372.51
371.74
370.812
369.945
369.252
368.725
368.299
367.911
367.523
367.125
366.721
366.316
365.914
365.521
365.133
364.748
364.371
364.003
363.645
363.306
362.994
362.707
362.443
362.203
361.997
361.825
361.684
361.572
361.492
361.444
361.422
361.422
361.435
361.455
361.477
361.497
361.512
361.515
361.508
361.491
361.465
361.43
361.387
361.336
361.281
361.221
361.158
361.092
361.026
360.958
360.89
360.823
360.755
360.689
360.622
360.557
360.492
360.427
360.362
360.298
360.234
360.17
360.106
360.042
359.978
359.914
359.85
359.787
359.724
359.66
359.597
359.535
359.472
359.41
359.348
359.286
359.225
359.164
359.104
359.044
358.984
358.926
358.867
358.81
358.753
358.696
358.641
358.586
358.532
358.479
358.428
358.377
358.327
358.279
358.232
358.187
358.143
358.101
358.061
358.023
357.986
357.953
357.921
357.892
357.866
357.842
357.822
357.805
357.792
357.783
357.778
357.777
357.781
357.79
357.804
357.825
357.851
357.884
357.923
357.971
358.026
358.089
358.162
358.244
358.336
358.438
358.552
358.678
358.817
358.969
359.135
359.315
359.512
359.725
359.955
360.203
360.469
360.756
361.062
361.39
361.739
362.112
362.507
362.926
363.37
363.839
364.334
364.854
365.401
365.974
366.573
367.199
367.852
368.531
369.236
369.966
370.722
371.502
372.306
373.132
371.208
370.858
370.328
369.713
369.118
368.601
368.164
367.778
367.411
367.041
366.665
366.284
365.904
365.53
365.163
364.801
364.447
364.101
363.764
363.442
363.146
362.877
362.63
362.398
362.188
362.009
361.868
361.758
361.67
361.603
361.558
361.535
361.528
361.527
361.527
361.526
361.523
361.519
361.506
361.485
361.457
361.421
361.379
361.33
361.276
361.217
361.155
361.091
361.025
360.958
360.891
360.823
360.756
360.689
360.623
360.557
360.492
360.427
360.362
360.298
360.234
360.169
360.105
360.041
359.977
359.914
359.85
359.786
359.723
359.66
359.597
359.534
359.471
359.409
359.347
359.285
359.224
359.163
359.102
359.042
358.983
358.924
358.865
358.807
358.75
358.694
358.638
358.583
358.529
358.476
358.424
358.373
358.323
358.275
358.228
358.182
358.138
358.096
358.055
358.016
357.979
357.945
357.913
357.883
357.856
357.832
357.812
357.794
357.78
357.77
357.764
357.762
357.765
357.773
357.786
357.805
357.83
357.861
357.899
357.945
357.998
358.06
358.13
358.21
358.3
358.4
358.512
358.635
358.771
358.921
359.084
359.262
359.455
359.665
359.892
360.136
360.4
360.683
360.986
361.31
361.657
362.025
362.418
362.834
363.275
363.742
364.234
364.753
365.298
365.87
366.469
367.095
367.748
368.428
369.135
369.868
370.626
371.41
372.218
373.05
370.307
370.114
369.781
369.343
368.866
368.408
367.994
367.62
367.272
366.929
366.58
366.229
365.877
365.526
365.182
364.846
364.516
364.19
363.874
363.573
363.292
363.037
362.808
362.592
362.382
362.196
362.052
361.946
361.855
361.768
361.699
361.656
361.632
361.614
361.595
361.577
361.563
361.547
361.525
361.497
361.462
361.422
361.377
361.327
361.273
361.214
361.153
361.089
361.024
360.958
360.891
360.824
360.757
360.69
360.624
360.558
360.493
360.428
360.363
360.298
360.234
360.169
360.105
360.041
359.977
359.913
359.849
359.786
359.722
359.659
359.596
359.533
359.47
359.407
359.345
359.283
359.222
359.161
359.1
359.04
358.98
358.921
358.862
358.804
358.747
358.69
358.634
358.579
358.525
358.471
358.419
358.368
358.317
358.268
358.221
358.175
358.13
358.087
358.046
358.006
357.969
357.933
357.9
357.87
357.842
357.817
357.795
357.776
357.761
357.75
357.742
357.739
357.74
357.746
357.757
357.774
357.797
357.826
357.862
357.905
357.956
358.014
358.082
358.158
358.245
358.342
358.449
358.569
358.701
358.846
359.004
359.177
359.366
359.57
359.792
360.031
360.289
360.566
360.864
361.182
361.523
361.886
362.273
362.684
363.119
363.581
364.068
364.582
365.123
365.692
366.288
366.912
367.564
368.243
368.95
369.684
370.445
371.232
372.045
372.881
369.624
369.498
369.27
368.952
368.579
368.192
367.819
367.469
367.14
366.819
366.496
366.172
365.847
365.52
365.199
364.887
364.578
364.269
363.972
363.691
363.424
363.181
362.966
362.766
362.561
362.368
362.218
362.113
362.019
361.918
361.829
361.771
361.736
361.705
361.671
361.637
361.609
361.582
361.55
361.513
361.471
361.427
361.379
361.327
361.271
361.212
361.151
361.088
361.023
360.958
360.892
360.825
360.759
360.692
360.626
360.56
360.495
360.429
360.364
360.299
360.234
360.17
360.105
360.041
359.977
359.913
359.849
359.785
359.721
359.657
359.594
359.531
359.468
359.406
359.343
359.281
359.22
359.158
359.097
359.037
358.977
358.918
358.859
358.8
358.743
358.685
358.629
358.574
358.519
358.465
358.412
358.36
358.31
358.26
358.212
358.165
358.12
358.076
358.034
357.993
357.955
357.919
357.885
357.853
357.824
357.798
357.774
357.754
357.737
357.724
357.715
357.71
357.709
357.713
357.722
357.736
357.756
357.782
357.815
357.855
357.902
357.957
358.021
358.093
358.175
358.268
358.371
358.485
358.612
358.751
358.904
359.071
359.253
359.451
359.666
359.898
360.149
360.419
360.709
361.02
361.352
361.708
362.087
362.49
362.918
363.372
363.853
364.36
364.895
365.458
366.049
366.668
367.317
367.993
368.699
369.432
370.194
370.982
371.798
372.638
369.08
368.99
368.823
368.585
368.292
367.971
367.644
367.324
367.016
366.716
366.415
366.113
365.813
365.511
365.211
364.92
364.63
364.339
364.057
363.792
363.539
363.306
363.103
362.914
362.714
362.516
362.36
362.254
362.159
362.052
361.95
361.879
361.833
361.791
361.742
361.694
361.653
361.616
361.575
361.531
361.484
361.435
361.384
361.329
361.272
361.212
361.151
361.088
361.023
360.958
360.893
360.827
360.76
360.694
360.628
360.562
360.496
360.431
360.365
360.3
360.235
360.17
360.105
360.041
359.976
359.912
359.848
359.784
359.72
359.656
359.593
359.529
359.466
359.403
359.341
359.279
359.217
359.155
359.094
359.034
358.973
358.913
358.854
358.796
358.737
358.68
358.623
358.567
358.512
358.458
358.404
358.352
358.301
358.251
358.202
358.154
358.108
358.063
358.02
357.979
357.939
357.902
357.867
357.834
357.803
357.775
357.75
357.728
357.71
357.694
357.683
357.675
357.672
357.674
357.68
357.691
357.708
357.731
357.76
357.796
357.839
357.89
357.949
358.017
358.094
358.181
358.279
358.387
358.507
358.64
358.786
358.946
359.121
359.311
359.518
359.742
359.984
360.245
360.526
360.828
361.151
361.498
361.867
362.261
362.68
363.125
363.597
364.096
364.622
365.178
365.762
366.375
367.018
367.69
368.392
369.123
369.883
370.672
371.488
372.331
368.635
368.566
368.438
368.253
368.019
367.753
367.47
367.181
366.896
366.616
366.335
366.054
365.776
365.496
365.216
364.943
364.671
364.396
364.127
363.876
363.637
363.414
363.218
363.036
362.841
362.643
362.484
362.377
362.283
362.172
362.059
361.975
361.919
361.866
361.805
361.746
361.695
361.649
361.602
361.551
361.499
361.446
361.391
361.334
361.275
361.214
361.152
361.089
361.025
360.96
360.894
360.828
360.762
360.696
360.63
360.563
360.498
360.432
360.366
360.301
360.235
360.17
360.105
360.04
359.976
359.911
359.847
359.782
359.718
359.654
359.591
359.527
359.464
359.401
359.338
359.276
359.214
359.152
359.091
359.03
358.969
358.909
358.849
358.79
358.732
358.674
358.617
358.56
358.505
358.45
358.396
358.343
358.291
358.24
358.19
358.141
358.094
358.049
358.005
357.962
357.921
357.883
357.846
357.812
357.78
357.75
357.723
357.699
357.678
357.661
357.647
357.637
357.631
357.629
357.632
357.64
357.654
357.673
357.698
357.73
357.769
357.815
357.869
357.931
358.002
358.083
358.174
358.276
358.389
358.515
358.653
358.805
358.971
359.153
359.35
359.565
359.797
360.048
360.319
360.61
360.923
361.258
361.617
362
362.408
362.843
363.304
363.793
364.31
364.856
365.431
366.037
366.673
367.339
368.035
368.762
369.519
370.306
371.122
371.966
368.264
368.21
368.107
367.958
367.767
367.544
367.299
367.041
366.781
366.52
366.258
365.996
365.736
365.475
365.213
364.957
364.702
364.442
364.186
363.947
363.719
363.504
363.314
363.139
362.952
362.757
362.596
362.487
362.391
362.275
362.153
362.058
361.992
361.932
361.864
361.795
361.736
361.684
361.63
361.574
361.516
361.459
361.401
361.342
361.281
361.218
361.155
361.091
361.027
360.961
360.896
360.83
360.764
360.697
360.631
360.565
360.499
360.433
360.367
360.301
360.235
360.17
360.105
360.04
359.975
359.91
359.845
359.781
359.717
359.653
359.589
359.525
359.462
359.398
359.335
359.273
359.21
359.148
359.087
359.025
358.964
358.904
358.844
358.784
358.725
358.667
358.609
358.552
358.496
358.441
358.386
358.332
358.279
358.228
358.177
358.128
358.079
358.033
357.987
357.944
357.902
357.861
357.823
357.787
357.753
357.722
357.693
357.667
357.644
357.624
357.607
357.594
357.585
357.58
357.58
357.584
357.594
357.609
357.63
357.657
357.69
357.731
357.779
357.836
357.901
357.975
358.059
358.153
358.259
358.376
358.505
358.648
358.805
358.977
359.164
359.368
359.589
359.829
360.088
360.367
360.668
360.991
361.338
361.708
362.104
362.526
362.975
363.452
363.958
364.493
365.058
365.654
366.281
366.939
367.629
368.351
369.103
369.887
370.7
371.544
367.952
367.907
367.823
367.7
367.539
367.349
367.136
366.907
366.669
366.429
366.184
365.938
365.695
365.451
365.206
364.966
364.725
364.479
364.236
364.006
363.787
363.58
363.398
363.23
363.049
362.856
362.694
362.58
362.481
362.362
362.235
362.133
362.06
361.993
361.919
361.843
361.776
361.717
361.658
361.596
361.534
361.473
361.412
361.35
361.287
361.223
361.159
361.095
361.029
360.964
360.898
360.831
360.765
360.699
360.632
360.566
360.499
360.433
360.367
360.301
360.235
360.17
360.104
360.039
359.974
359.909
359.844
359.779
359.715
359.651
359.586
359.522
359.459
359.395
359.332
359.269
359.206
359.144
359.082
359.02
358.959
358.898
358.838
358.778
358.719
358.66
358.601
358.544
358.487
358.431
358.375
358.321
358.267
358.214
358.163
358.112
358.063
358.015
357.969
357.923
357.88
357.838
357.798
357.76
357.725
357.691
357.66
357.631
357.606
357.583
357.564
357.548
357.535
357.527
357.523
357.523
357.528
357.538
357.554
357.576
357.604
357.639
357.681
357.731
357.789
357.856
357.932
358.018
358.115
358.223
358.343
358.476
358.622
358.783
358.959
359.151
359.36
359.587
359.833
360.1
360.387
360.696
361.028
361.385
361.767
362.175
362.61
363.074
363.566
364.089
364.642
365.226
365.843
366.492
367.173
367.887
368.633
369.412
370.222
371.063
367.687
367.649
367.578
367.473
367.336
367.172
366.985
366.78
366.564
366.342
366.113
365.883
365.655
365.426
365.196
364.97
364.743
364.509
364.276
364.055
363.844
363.647
363.472
363.309
363.13
362.938
362.776
362.661
362.559
362.438
362.308
362.201
362.122
362.049
361.968
361.886
361.813
361.748
361.684
361.618
361.552
361.487
361.423
361.359
361.294
361.229
361.164
361.098
361.032
360.966
360.9
360.833
360.767
360.7
360.633
360.567
360.5
360.434
360.367
360.301
360.235
360.169
360.104
360.038
359.973
359.908
359.843
359.778
359.713
359.648
359.584
359.52
359.456
359.392
359.329
359.265
359.202
359.14
359.077
359.015
358.954
358.892
358.831
358.771
358.711
358.652
358.593
358.535
358.477
358.42
358.364
358.308
358.254
358.2
358.148
358.096
358.045
357.996
357.948
357.902
357.857
357.813
357.771
357.732
357.694
357.658
357.624
357.593
357.565
357.539
357.517
357.497
357.481
357.469
357.461
357.457
357.457
357.463
357.473
357.489
357.511
357.54
357.575
357.618
357.668
357.727
357.795
357.872
357.959
358.057
358.167
358.289
358.424
358.572
358.736
358.915
359.111
359.324
359.556
359.807
360.079
360.373
360.69
361.031
361.397
361.789
362.208
362.657
363.134
363.642
364.181
364.752
365.356
365.993
366.664
367.369
368.107
368.879
369.685
370.522
367.461
367.428
367.367
367.276
367.157
367.013
366.847
366.663
366.466
366.26
366.047
365.831
365.617
365.401
365.185
364.971
364.756
364.532
364.309
364.097
363.894
363.704
363.534
363.373
363.196
363.008
362.848
362.732
362.629
362.505
362.373
362.261
362.176
362.097
362.011
361.925
361.847
361.777
361.708
361.639
361.569
361.502
361.435
361.369
361.302
361.236
361.169
361.103
361.036
360.969
360.902
360.835
360.768
360.701
360.634
360.568
360.501
360.434
360.368
360.301
360.235
360.169
360.103
360.037
359.972
359.906
359.841
359.776
359.711
359.646
359.581
359.517
359.453
359.389
359.325
359.261
359.198
359.135
359.072
359.01
358.948
358.886
358.825
358.764
358.703
358.643
358.584
358.525
358.466
358.409
358.351
358.295
358.24
358.185
358.131
358.078
358.027
357.976
357.927
357.878
357.832
357.786
357.743
357.701
357.66
357.622
357.586
357.552
357.521
357.492
357.466
357.443
357.423
357.407
357.394
357.386
357.381
357.381
357.386
357.396
357.412
357.434
357.462
357.497
357.539
357.589
357.647
357.715
357.792
357.879
357.977
358.087
358.21
358.345
358.495
358.66
358.841
359.039
359.255
359.49
359.745
360.022
360.322
360.645
360.993
361.368
361.77
362.2
362.661
363.152
363.675
364.231
364.82
365.444
366.102
366.795
367.524
368.288
369.086
369.919
367.268
367.24
367.186
367.106
367
366.872
366.724
366.556
366.376
366.185
365.986
365.783
365.581
365.377
365.172
364.969
364.764
364.55
364.336
364.132
363.935
363.75
363.585
363.428
363.254
363.07
362.911
362.794
362.688
362.562
362.427
362.313
362.223
362.14
362.05
361.96
361.878
361.804
361.731
361.658
361.586
361.516
361.447
361.378
361.31
361.242
361.174
361.107
361.039
360.972
360.904
360.837
360.77
360.702
360.635
360.568
360.501
360.434
360.368
360.301
360.235
360.168
360.102
360.036
359.97
359.905
359.839
359.774
359.708
359.643
359.578
359.514
359.449
359.385
359.321
359.257
359.193
359.13
359.067
359.004
358.941
358.879
358.817
358.756
358.695
358.634
358.574
358.514
358.455
358.396
358.338
358.281
358.225
358.169
358.114
358.06
358.007
357.955
357.904
357.854
357.805
357.758
357.712
357.668
357.625
357.585
357.546
357.509
357.474
357.442
357.413
357.386
357.362
357.341
357.324
357.31
357.3
357.295
357.294
357.297
357.306
357.32
357.341
357.367
357.401
357.442
357.49
357.547
357.613
357.689
357.775
357.872
357.981
358.102
358.237
358.387
358.552
358.733
358.932
359.149
359.386
359.644
359.924
360.228
360.557
360.911
361.294
361.704
362.145
362.618
363.122
363.66
364.232
364.84
365.484
366.164
366.88
367.634
368.423
369.249
367.105
367.08
367.031
366.96
366.865
366.75
366.615
366.461
366.295
366.118
365.931
365.739
365.548
365.354
365.159
364.966
364.769
364.563
364.357
364.16
363.969
363.789
363.628
363.475
363.304
363.121
362.963
362.846
362.738
362.61
362.474
362.358
362.265
362.178
362.085
361.991
361.905
361.828
361.752
361.676
361.601
361.528
361.458
361.387
361.318
361.248
361.179
361.111
361.043
360.975
360.907
360.839
360.771
360.703
360.636
360.569
360.501
360.434
360.367
360.301
360.234
360.167
360.101
360.035
359.969
359.903
359.837
359.771
359.706
359.641
359.575
359.51
359.446
359.381
359.317
359.252
359.188
359.124
359.061
358.998
358.935
358.872
358.809
358.747
358.686
358.624
358.563
358.503
358.443
358.384
358.325
358.266
358.209
358.152
358.096
358.04
357.986
357.932
357.879
357.828
357.777
357.728
357.68
357.633
357.588
357.545
357.503
357.463
357.426
357.39
357.357
357.326
357.297
357.272
357.25
357.231
357.215
357.204
357.196
357.193
357.194
357.201
357.213
357.231
357.255
357.286
357.324
357.37
357.424
357.488
357.56
357.644
357.738
357.844
357.963
358.096
358.243
358.406
358.586
358.784
359.001
359.239
359.498
359.78
360.087
360.42
360.78
361.168
361.587
362.038
362.521
363.039
363.592
364.181
364.808
365.472
366.174
366.915
367.694
368.51
366.968
366.945
366.901
366.836
366.75
366.644
366.52
366.378
366.223
366.058
365.881
365.7
365.518
365.333
365.146
364.961
364.772
364.574
364.374
364.182
363.997
363.821
363.665
363.515
363.345
363.163
363.007
362.89
362.781
362.652
362.514
362.396
362.301
362.211
362.114
362.018
361.929
361.849
361.77
361.692
361.615
361.54
361.468
361.396
361.325
361.254
361.184
361.115
361.046
360.977
360.909
360.84
360.772
360.704
360.637
360.569
360.501
360.434
360.367
360.3
360.233
360.166
360.1
360.033
359.967
359.901
359.835
359.769
359.703
359.638
359.572
359.507
359.442
359.377
359.312
359.248
359.183
359.119
359.055
358.991
358.928
358.864
358.801
358.739
358.676
358.614
358.553
358.491
358.431
358.37
358.31
358.251
358.192
358.134
358.077
358.02
357.964
357.908
357.854
357.801
357.748
357.697
357.646
357.597
357.55
357.504
357.459
357.416
357.374
357.335
357.298
357.263
357.23
357.2
357.172
357.148
357.126
357.108
357.094
357.084
357.077
357.076
357.079
357.088
357.102
357.122
357.149
357.184
357.225
357.275
357.334
357.403
357.482
357.572
357.673
357.788
357.917
358.06
358.22
358.396
358.592
358.806
359.042
359.301
359.584
359.892
360.227
360.591
360.986
361.412
361.872
362.366
362.897
363.465
364.071
364.717
365.402
366.128
366.893
367.699
366.854
366.833
366.793
366.733
366.653
366.555
366.44
366.308
366.162
366.006
365.838
365.665
365.491
365.313
365.134
364.956
364.774
364.581
364.387
364.201
364.019
363.847
363.694
363.546
363.378
363.198
363.044
362.927
362.817
362.686
362.548
362.428
362.331
362.238
362.139
362.041
361.95
361.867
361.786
361.706
361.627
361.551
361.476
361.403
361.331
361.259
361.189
361.118
361.049
360.979
360.91
360.842
360.773
360.705
360.637
360.569
360.501
360.434
360.366
360.299
360.232
360.165
360.098
360.032
359.965
359.899
359.833
359.766
359.7
359.635
359.569
359.503
359.438
359.373
359.308
359.243
359.178
359.113
359.049
358.984
358.92
358.857
358.793
358.73
358.667
358.604
358.542
358.48
358.418
358.356
358.296
358.235
358.175
358.116
358.057
357.999
357.941
357.884
357.828
357.772
357.718
357.664
357.612
357.56
357.51
357.461
357.413
357.366
357.321
357.278
357.237
357.197
357.16
357.124
357.091
357.061
357.034
357.009
356.988
356.97
356.955
356.945
356.94
356.938
356.942
356.952
356.967
356.989
357.017
357.053
357.097
357.15
357.213
357.285
357.369
357.464
357.572
357.695
357.832
357.986
358.157
358.348
358.558
358.791
359.047
359.328
359.636
359.973
360.34
360.739
361.171
361.64
362.145
362.688
363.272
363.896
364.561
365.269
366.018
366.81
366.762
366.742
366.705
366.649
366.574
366.482
366.374
366.249
366.111
365.962
365.802
365.636
365.468
365.297
365.123
364.951
364.774
364.586
364.397
364.215
364.037
363.868
363.718
363.572
363.405
363.226
363.073
362.957
362.846
362.714
362.575
362.454
362.356
362.261
362.16
362.06
361.967
361.883
361.8
361.718
361.637
361.559
361.484
361.41
361.336
361.264
361.192
361.121
361.051
360.981
360.912
360.843
360.774
360.705
360.637
360.569
360.501
360.433
360.366
360.298
360.231
360.164
360.097
360.03
359.963
359.897
359.83
359.764
359.698
359.631
359.565
359.5
359.434
359.368
359.303
359.237
359.172
359.107
359.042
358.978
358.913
358.849
358.784
358.72
358.657
358.593
358.53
358.467
358.405
358.342
358.28
358.219
358.158
358.097
358.037
357.977
357.918
357.859
357.801
357.743
357.687
357.631
357.576
357.522
357.468
357.416
357.365
357.315
357.267
357.219
357.174
357.13
357.087
357.047
357.008
356.972
356.938
356.906
356.878
356.852
356.829
356.81
356.795
356.784
356.777
356.775
356.778
356.786
356.801
356.822
356.851
356.887
356.932
356.986
357.05
357.125
357.211
357.311
357.425
357.554
357.7
357.863
358.046
358.25
358.477
358.729
359.007
359.313
359.649
360.017
360.42
360.858
361.334
361.85
362.406
363.006
363.648
364.334
365.066
365.841
366.69
366.671
366.636
366.583
366.512
366.425
366.322
366.202
366.07
365.927
365.772
365.612
365.45
365.283
365.114
364.947
364.774
364.59
364.405
364.226
364.051
363.884
363.736
363.592
363.427
363.248
363.096
362.98
362.869
362.736
362.596
362.475
362.376
362.279
362.177
362.075
361.981
361.895
361.811
361.727
361.645
361.567
361.49
361.415
361.34
361.267
361.195
361.124
361.053
360.983
360.913
360.844
360.774
360.706
360.637
360.569
360.501
360.433
360.365
360.297
360.23
360.162
360.095
360.028
359.961
359.894
359.828
359.761
359.694
359.628
359.562
359.496
359.43
359.364
359.298
359.232
359.166
359.101
359.036
358.97
358.905
358.84
358.776
358.711
358.647
358.582
358.518
358.455
358.391
358.328
358.265
358.202
358.139
358.077
358.016
357.954
357.893
357.833
357.773
357.714
357.655
357.597
357.539
357.482
357.426
357.371
357.316
357.263
357.21
357.159
357.109
357.06
357.013
356.967
356.922
356.88
356.839
356.801
356.764
356.731
356.699
356.671
356.646
356.624
356.606
356.592
356.582
356.577
356.577
356.583
356.595
356.614
356.64
356.674
356.718
356.771
356.835
356.91
356.999
357.101
357.219
357.354
357.507
357.68
357.875
358.094
358.338
358.61
358.912
359.246
359.615
360.02
360.463
360.947
361.473
362.043
362.659
363.32
364.029
364.786
366.637
366.619
366.585
366.534
366.466
366.382
366.283
366.167
366.039
365.9
365.75
365.594
365.436
365.273
365.108
364.943
364.773
364.593
364.41
364.233
364.06
363.896
363.749
363.607
363.442
363.264
363.112
362.997
362.886
362.753
362.612
362.49
362.39
362.293
362.189
362.086
361.991
361.904
361.819
361.734
361.652
361.572
361.495
361.419
361.344
361.27
361.197
361.125
361.054
360.984
360.914
360.844
360.775
360.705
360.637
360.568
360.5
360.432
360.364
360.296
360.228
360.161
360.093
360.026
359.959
359.892
359.825
359.758
359.691
359.625
359.558
359.492
359.425
359.359
359.293
359.227
359.161
359.095
359.029
358.963
358.898
358.832
358.767
358.701
358.636
358.571
358.506
358.442
358.377
358.313
358.249
358.185
358.121
358.058
357.994
357.932
357.869
357.807
357.745
357.683
357.622
357.562
357.501
357.442
357.383
357.324
357.266
357.209
357.153
357.097
357.043
356.989
356.937
356.885
356.835
356.786
356.739
356.693
356.649
356.606
356.566
356.528
356.493
356.46
356.43
356.404
356.38
356.361
356.346
356.336
356.331
356.332
356.338
356.352
356.374
356.404
356.443
356.493
356.554
356.628
356.716
356.82
356.941
357.08
357.24
357.423
357.631
357.866
358.13
358.426
358.756
359.123
359.529
359.976
360.467
361.004
361.588
362.222
362.905
363.638
366.602
366.584
366.551
366.501
366.435
366.354
366.257
366.144
366.019
365.883
365.735
365.582
365.426
365.266
365.103
364.941
364.773
364.594
364.413
364.238
364.067
363.904
363.758
363.616
363.452
363.275
363.123
363.008
362.897
362.763
362.622
362.5
362.399
362.301
362.197
362.093
361.998
361.91
361.824
361.739
361.656
361.575
361.497
361.421
361.346
361.271
361.198
361.126
361.055
360.984
360.914
360.844
360.774
360.705
360.636
360.567
360.499
360.43
360.362
360.294
360.227
360.159
360.091
360.024
359.957
359.889
359.822
359.755
359.688
359.621
359.554
359.488
359.421
359.354
359.288
359.221
359.155
359.088
359.022
358.956
358.89
358.823
358.757
358.692
358.626
358.56
358.494
358.429
358.363
358.298
358.232
358.167
358.102
358.038
357.973
357.908
357.844
357.78
357.716
357.653
357.589
357.526
357.463
357.401
357.339
357.277
357.216
357.155
357.095
357.035
356.976
356.917
356.859
356.802
356.746
356.691
356.636
356.583
356.531
356.48
356.431
356.383
356.337
356.293
356.251
356.212
356.175
356.141
356.11
356.083
356.06
356.042
356.028
356.021
356.019
356.025
356.039
356.061
356.094
356.137
356.193
356.263
356.349
356.452
356.574
356.718
356.885
357.078
357.301
357.554
357.841
358.165
358.529
358.936
359.386
359.886
360.434
361.033
361.688
362.393
366.584
366.567
366.534
366.485
366.42
366.339
366.244
366.132
366.009
365.874
365.728
365.576
365.421
365.262
365.1
364.939
364.772
364.595
364.415
364.241
364.07
363.907
363.762
363.621
363.457
363.28
363.129
363.013
362.902
362.768
362.627
362.505
362.404
362.306
362.201
362.097
362.001
361.913
361.827
361.741
361.657
361.577
361.499
361.422
361.346
361.272
361.199
361.126
361.055
360.984
360.913
360.843
360.774
360.704
360.635
360.566
360.498
360.429
360.361
360.293
360.225
360.157
360.089
360.022
359.954
359.887
359.819
359.752
359.685
359.618
359.55
359.483
359.416
359.349
359.283
359.216
359.149
359.082
359.015
358.948
358.882
358.815
358.748
358.682
358.615
358.548
358.482
358.415
358.349
358.283
358.216
358.15
358.084
358.017
357.951
357.885
357.819
357.753
357.687
357.622
357.556
357.49
357.425
357.36
357.295
357.23
357.165
357.1
357.036
356.972
356.908
356.844
356.781
356.718
356.656
356.594
356.532
356.472
356.411
356.352
356.293
356.235
356.179
356.123
356.069
356.016
355.965
355.916
355.869
355.825
355.783
355.745
355.711
355.681
355.655
355.635
355.622
355.616
355.618
355.629
355.651
355.685
355.733
355.797
355.878
355.978
356.101
356.249
356.424
356.63
356.869
357.146
357.462
357.821
358.228
358.681
359.189
359.751
360.367
361.044
366.584
366.567
366.534
366.485
366.42
366.339
366.244
366.132
366.009
365.874
365.728
365.575
365.421
365.262
365.1
364.939
364.772
364.595
364.415
364.24
364.07
363.907
363.762
363.62
363.457
363.28
363.129
363.013
362.902
362.768
362.627
362.505
362.404
362.305
362.201
362.097
362.001
361.912
361.826
361.74
361.657
361.576
361.498
361.421
361.346
361.271
361.198
361.126
361.054
360.983
360.912
360.842
360.772
360.703
360.634
360.565
360.496
360.428
360.359
360.291
360.223
360.155
360.087
360.019
359.952
359.884
359.816
359.749
359.681
359.614
359.547
359.479
359.412
359.345
359.277
359.21
359.143
359.075
359.008
358.941
358.874
358.806
358.739
358.672
358.604
358.537
358.47
358.402
358.335
358.267
358.2
358.132
358.065
357.997
357.929
357.862
357.794
357.726
357.658
357.59
357.522
357.454
357.386
357.318
357.25
357.182
357.114
357.045
356.977
356.908
356.84
356.771
356.703
356.634
356.565
356.497
356.428
356.359
356.291
356.223
356.154
356.086
356.019
355.952
355.885
355.818
355.753
355.688
355.625
355.563
355.502
355.444
355.387
355.334
355.284
355.237
355.195
355.159
355.128
355.105
355.091
355.087
355.094
355.115
355.152
355.206
355.28
355.378
355.501
355.654
355.841
356.062
356.325
356.631
356.983
357.39
357.847
358.365
358.943
359.578
366.601
366.584
366.551
366.501
366.435
366.353
366.257
366.144
366.019
365.883
365.735
365.581
365.426
365.266
365.103
364.94
364.773
364.594
364.413
364.238
364.066
363.903
363.758
363.616
363.452
363.275
363.123
363.008
362.896
362.763
362.621
362.5
362.399
362.301
362.196
362.092
361.997
361.909
361.823
361.738
361.654
361.574
361.496
361.419
361.344
361.27
361.196
361.124
361.052
360.981
360.911
360.841
360.771
360.702
360.632
360.563
360.495
360.426
360.357
360.289
360.221
360.153
360.085
360.017
359.949
359.881
359.813
359.746
359.678
359.61
359.543
359.475
359.407
359.34
359.272
359.204
359.137
359.069
359.001
358.933
358.866
358.798
358.73
358.662
358.594
358.526
358.457
358.389
358.321
358.252
358.183
358.115
358.046
357.977
357.908
357.838
357.769
357.699
357.629
357.559
357.489
357.419
357.348
357.277
357.206
357.134
357.062
356.99
356.918
356.845
356.772
356.698
356.624
356.549
356.475
356.399
356.323
356.247
356.17
356.093
356.015
355.937
355.858
355.779
355.699
355.619
355.539
355.459
355.378
355.298
355.218
355.138
355.06
354.982
354.906
354.831
354.76
354.692
354.627
354.569
354.516
354.471
354.435
354.41
354.398
354.401
354.423
354.465
354.532
354.626
354.752
354.914
355.114
355.361
355.655
356
356.407
356.869
357.398
357.995
366.636
366.619
366.584
366.533
366.465
366.382
366.282
366.167
366.039
365.9
365.75
365.593
365.435
365.273
365.107
364.943
364.773
364.592
364.409
364.233
364.06
363.896
363.749
363.606
363.441
363.264
363.112
362.996
362.885
362.752
362.611
362.489
362.389
362.291
362.188
362.084
361.99
361.902
361.817
361.732
361.649
361.569
361.492
361.416
361.341
361.267
361.194
361.122
361.05
360.979
360.909
360.839
360.769
360.7
360.631
360.562
360.493
360.424
360.355
360.287
360.219
360.15
360.082
360.014
359.946
359.878
359.81
359.742
359.674
359.607
359.539
359.471
359.403
359.335
359.267
359.199
359.131
359.063
358.994
358.926
358.858
358.789
358.721
358.652
358.583
358.514
358.445
358.376
358.306
358.237
358.167
358.097
358.027
357.957
357.886
357.815
357.744
357.672
357.601
357.528
357.456
357.383
357.31
357.236
357.161
357.087
357.011
356.935
356.859
356.782
356.704
356.625
356.546
356.465
356.384
356.302
356.219
356.135
356.05
355.964
355.876
355.787
355.698
355.606
355.514
355.42
355.325
355.229
355.131
355.032
354.932
354.831
354.729
354.626
354.523
354.42
354.318
354.217
354.117
354.02
353.927
353.838
353.757
353.682
353.619
353.567
353.531
353.513
353.516
353.546
353.605
353.697
353.831
354.006
354.233
354.514
354.851
355.259
355.729
356.274
366.69
366.671
366.635
366.582
366.511
366.424
366.321