/*--------------------------------*- C++ -*----------------------------------*\
| =========                 |                                                 |
| \\      /  F ield         | OpenFOAM: The Open Source CFD Toolbox           |
|  \\    /   O peration     | Version:  2306                                  |
|   \\  /    A nd           | Website:  www.openfoam.com                      |
|    \\/     M anipulation  |                                                 |
\*---------------------------------------------------------------------------*/
FoamFile
{
    version     2.0;
    format      ascii;
    arch        "LSB;label=32;scalar=64";
    class       surfaceScalarField;
    location    "0.025";
    object      phi;
}
// * * * * * * * * * * * * * * * * * * * * * * * * * * * * * * * * * * * * * //

dimensions      [0 3 -1 0 0 0 0];

oriented        oriented;

internalField   nonuniform List<scalar> 
34640
(
0.00492443
7.55707e-05
0.0047861
0.00013833
0.00463074
0.000155356
0.0044743
0.00015644
0.00431656
0.000157747
0.00415581
0.000160747
0.00399251
0.000163303
0.00382789
0.000164618
0.0036638
0.000164094
0.00350158
0.00016221
0.00334211
0.000159474
0.00318625
0.000155862
0.00303448
0.000151766
0.0028874
0.000147085
0.00274608
0.000141318
0.00261125
0.000134833
0.00248335
0.000127894
0.00236333
0.00012002
0.00225184
0.000111494
0.00214892
0.000102918
0.00205496
9.39647e-05
0.00197055
8.4403e-05
0.00189596
7.45893e-05
0.00183117
6.47929e-05
0.00177583
5.53394e-05
0.00172946
4.63701e-05
0.00169169
3.7769e-05
0.00166238
2.9318e-05
0.0016412
2.11704e-05
0.00162739
1.38124e-05
0.00161981
7.57986e-06
0.00161737
2.43784e-06
0.00161879
-1.4136e-06
0.00162314
-4.35452e-06
0.00162933
-6.19013e-06
0.00163637
-7.03307e-06
0.00164351
-7.14405e-06
0.00165022
-6.71081e-06
0.0016562
-5.97709e-06
0.00166125
-5.05041e-06
0.0016653
-4.05031e-06
0.00166838
-3.08263e-06
0.0016706
-2.21554e-06
0.00167209
-1.49012e-06
0.00167301
-9.21056e-07
0.0016735
-4.9562e-07
0.0016737
-1.96192e-07
0.0016737
-5.37785e-10
0.00167357
1.3045e-07
0.00167338
1.92794e-07
0.00167316
2.13361e-07
0.00167296
2.06207e-07
0.00167277
1.83706e-07
0.00167262
1.55327e-07
0.00167249
1.27096e-07
0.00167239
1.0286e-07
0.0016723
8.46116e-08
0.00167223
7.22168e-08
0.00167217
6.5622e-08
0.0016721
6.47196e-08
0.00167203
6.83703e-08
0.00167196
7.49497e-08
0.00167187
8.35791e-08
0.00167178
9.45103e-08
0.00167167
1.07245e-07
0.00167155
1.21194e-07
0.00167142
1.3605e-07
0.00167126
1.51656e-07
0.0016711
1.67985e-07
0.00167091
1.85056e-07
0.00167071
2.02937e-07
0.00167049
2.2172e-07
0.00167024
2.41501e-07
0.00166998
2.62411e-07
0.0016697
2.84563e-07
0.00166939
3.08108e-07
0.00166906
3.33183e-07
0.0016687
3.59935e-07
0.00166831
3.8853e-07
0.00166789
4.19118e-07
0.00166744
4.5189e-07
0.00166695
4.87018e-07
0.00166643
5.24693e-07
0.00166586
5.65135e-07
0.00166525
6.08547e-07
0.0016646
6.5518e-07
0.00166389
7.05276e-07
0.00166313
7.59098e-07
0.00166232
8.16948e-07
0.00166144
8.79102e-07
0.00166049
9.4591e-07
0.00165947
1.0177e-06
0.00165838
1.09485e-06
0.0016572
1.17777e-06
0.00165593
1.26686e-06
0.00165457
1.36262e-06
0.0016531
1.4655e-06
0.00165153
1.57605e-06
0.00164983
1.69482e-06
0.00164801
1.82237e-06
0.00164605
1.95939e-06
0.00164395
2.1065e-06
0.00164168
2.26443e-06
0.00163925
2.43398e-06
0.00163663
2.61592e-06
0.00163382
2.81111e-06
0.0016308
3.02053e-06
0.00162755
3.24504e-06
0.00162407
3.48596e-06
0.00162032
3.74457e-06
0.0016163
4.02115e-06
0.00161199
4.31692e-06
0.00160735
4.63403e-06
0.00160238
4.97366e-06
0.00159704
5.33696e-06
0.00159132
5.72546e-06
0.00158518
6.14062e-06
0.00157859
6.58405e-06
0.00157153
7.05745e-06
0.00156397
7.56249e-06
0.00155587
8.10087e-06
0.0015472
8.67439e-06
0.00153791
9.28486e-06
0.00152798
9.93402e-06
0.00151735
1.06236e-05
0.001506
1.13554e-05
0.00149387
1.21312e-05
0.00148091
1.29525e-05
0.00146709
1.38207e-05
0.00145236
1.47373e-05
0.00143665
1.57033e-05
0.00141993
1.67196e-05
0.00140215
1.77868e-05
0.00138324
1.8905e-05
0.00136317
2.0074e-05
0.00134187
2.1293e-05
0.00131931
2.25607e-05
0.00129544
2.38749e-05
0.00127021
2.52328e-05
0.00124358
2.66308e-05
0.00121551
2.8064e-05
0.00118598
2.95267e-05
0.00115497
3.1012e-05
0.00112246
3.25117e-05
0.00108844
3.40161e-05
0.00105293
3.55143e-05
0.00101594
3.6994e-05
0.000977495
3.84414e-05
0.000937654
3.98413e-05
0.000896477
4.11771e-05
0.000854045
4.24315e-05
0.00081046
4.35857e-05
0.000765839
4.46208e-05
0.000720322
4.55172e-05
0.000674066
4.62557e-05
0.000627248
4.68178e-05
0.000580062
4.71863e-05
0.000532716
4.73455e-05
0.000485434
4.72825e-05
4.69872e-05
0.000438447
0.00503753
3.80364e-05
0.00507749
9.83743e-05
0.00509736
0.000135485
0.00510141
0.000152388
0.00509862
0.000160543
0.0050916
0.000167764
0.00507919
0.000175713
0.00506033
0.000183474
0.00503485
0.000189574
0.00500358
0.000193479
0.00496744
0.000195616
0.00492705
0.000196252
0.00488319
0.000195629
0.00483637
0.000193903
0.00478679
0.0001909
0.00473496
0.000186666
0.00468159
0.000181259
0.00462711
0.000174496
0.00457198
0.000166624
0.00451688
0.000158024
0.00446223
0.000148611
0.00440843
0.000138208
0.00435617
0.000126851
0.00430616
0.000114797
0.00425885
0.000102653
0.00421432
9.08941e-05
0.00417278
7.9313e-05
0.00413464
6.74569e-05
0.00410024
5.55717e-05
0.0040696
4.44513e-05
0.0040426
3.45848e-05
0.00401912
2.59188e-05
0.00399943
1.82712e-05
0.00398333
1.17489e-05
0.00397049
6.64614e-06
0.0039607
2.75382e-06
0.00395365
-8.98404e-08
0.00394873
-1.79429e-06
0.00394561
-2.85339e-06
0.00394382
-3.25735e-06
0.00394292
-3.15486e-06
0.00394254
-2.70097e-06
0.00394236
-2.03318e-06
0.00394214
-1.27094e-06
0.00394173
-5.10465e-07
0.00394104
1.92935e-07
0.00394008
7.65126e-07
0.00393888
1.19474e-06
0.00393754
1.47174e-06
0.00393613
1.60161e-06
0.00393474
1.60971e-06
0.00393342
1.5264e-06
0.00393222
1.38347e-06
0.00393116
1.21e-06
0.00393026
1.02967e-06
0.0039295
8.59366e-07
0.00392888
7.09134e-07
0.00392837
5.8436e-07
0.00392794
4.86276e-07
0.0039276
4.13595e-07
0.0039273
3.63187e-07
0.00392704
3.31285e-07
0.00392681
3.14469e-07
0.0039266
3.09827e-07
0.00392639
3.14684e-07
0.00392619
3.26807e-07
0.00392598
3.4461e-07
0.00392576
3.66943e-07
0.00392554
3.93107e-07
0.0039253
4.22618e-07
0.00392505
4.55247e-07
0.00392478
4.90885e-07
0.00392449
5.2952e-07
0.00392418
5.7126e-07
0.00392385
6.16206e-07
0.00392349
6.64581e-07
0.00392311
7.16582e-07
0.0039227
7.72469e-07
0.00392225
8.32528e-07
0.00392177
8.97037e-07
0.00392126
9.66363e-07
0.00392071
1.04084e-06
0.00392011
1.12087e-06
0.00391947
1.20689e-06
0.00391878
1.29933e-06
0.00391803
1.39872e-06
0.00391723
1.50557e-06
0.00391637
1.62043e-06
0.00391545
1.74395e-06
0.00391445
1.87675e-06
0.00391337
2.01953e-06
0.00391222
2.17304e-06
0.00391098
2.33806e-06
0.00390964
2.51548e-06
0.0039082
2.7062e-06
0.00390665
2.91122e-06
0.00390498
3.1316e-06
0.00390319
3.36846e-06
0.00390126
3.62304e-06
0.00389919
3.8966e-06
0.00389696
4.19051e-06
0.00389456
4.50627e-06
0.00389198
4.8454e-06
0.0038892
5.20962e-06
0.00388622
5.60072e-06
0.00388301
6.02058e-06
0.00387956
6.47128e-06
0.00387585
6.95493e-06
0.00387186
7.47381e-06
0.00386757
8.03046e-06
0.00386297
8.62748e-06
0.00385802
9.26752e-06
0.0038527
9.95348e-06
0.00384698
1.06884e-05
0.00384084
1.14754e-05
0.00383425
1.2318e-05
0.00382717
1.32197e-05
0.00381957
1.41842e-05
0.00381141
1.52154e-05
0.00380266
1.63173e-05
0.00379327
1.7494e-05
0.00378319
1.87499e-05
0.00377238
2.00895e-05
0.0037608
2.15171e-05
0.00374839
2.30375e-05
0.00373509
2.46551e-05
0.00372084
2.63749e-05
0.0037056
2.82012e-05
0.00368928
3.01387e-05
0.00367182
3.21917e-05
0.00365316
3.43644e-05
0.00363322
3.66605e-05
0.00361192
3.90835e-05
0.00358919
4.16364e-05
0.00356495
4.43212e-05
0.0035391
4.71395e-05
0.00351157
5.00918e-05
0.00348227
5.31776e-05
0.0034511
5.63951e-05
0.00341799
5.97408e-05
0.00338285
6.321e-05
0.00334558
6.67957e-05
0.0033061
7.0489e-05
0.00326433
7.42787e-05
0.0032202
7.81509e-05
0.00317362
8.20894e-05
0.00312454
8.60747e-05
0.0030729
9.00846e-05
0.00301865
9.40937e-05
0.00296175
9.80736e-05
0.00290219
0.000101993
0.00283996
0.000105816
0.00277507
0.000109508
0.00270756
0.000113028
0.00263748
0.000116334
0.00256492
0.000119385
0.00248997
0.000122137
0.00241276
0.000124547
0.00233347
0.000126574
0.000128177
0.00225228
0.00501446
2.35783e-05
0.00504453
6.82982e-05
0.00507434
0.00010568
0.00509886
0.000127864
0.0051183
0.000141107
0.00513577
0.000150293
0.00515299
0.000158492
0.00516964
0.000166825
0.0051846
0.000174612
0.00519731
0.000180772
0.00520772
0.000185206
0.00521585
0.000188124
0.005222
0.000189475
0.00522635
0.000189553
0.00522861
0.000188644
0.00522879
0.000186478
0.00522718
0.000182873
0.00522357
0.000178106
0.00521789
0.000172302
0.00521058
0.00016534
0.00520184
0.000157352
0.00519149
0.000148555
0.00517957
0.000138764
0.00516657
0.000127798
0.00515294
0.000116283
0.00513876
0.000105081
0.00512395
9.41191e-05
0.00510872
8.26894e-05
0.00509346
7.08242e-05
0.00507846
5.9458e-05
0.00506381
4.92372e-05
0.00504967
4.00517e-05
0.00503627
3.16743e-05
0.0050238
2.42152e-05
0.00501248
1.79659e-05
0.00500223
1.30025e-05
0.004993
9.14639e-06
0.00498497
6.23476e-06
0.00497801
4.10603e-06
0.00497201
2.74648e-06
0.00496677
2.08362e-06
0.00496206
2.00701e-06
0.00495762
2.40285e-06
0.00495322
3.13133e-06
0.00494868
4.03533e-06
0.0049439
4.96481e-06
0.00493889
5.77607e-06
0.00493371
6.37347e-06
0.00492848
6.70159e-06
0.00492334
6.74449e-06
0.00491842
6.52647e-06
0.00491385
6.09921e-06
0.00490971
5.52759e-06
0.00490604
4.87751e-06
0.00490286
4.20731e-06
0.00490016
3.5627e-06
0.00489789
2.97465e-06
0.00489602
2.46104e-06
0.00489447
2.02863e-06
0.00489321
1.676e-06
0.00489218
1.3965e-06
0.00489133
1.18087e-06
0.00489062
1.01906e-06
0.00489003
9.01473e-07
0.00488953
8.1954e-07
0.00488909
7.65938e-07
0.0048887
7.34865e-07
0.00488834
7.21693e-07
0.00488801
7.23034e-07
0.0048877
7.36277e-07
0.0048874
7.59596e-07
0.0048871
7.91677e-07
0.00488679
8.31587e-07
0.00488649
8.78797e-07
0.00488617
9.32879e-07
0.00488584
9.93742e-07
0.0048855
1.06131e-06
0.00488513
1.1357e-06
0.00488475
1.21711e-06
0.00488434
1.30574e-06
0.0048839
1.40198e-06
0.00488344
1.50618e-06
0.00488294
1.6188e-06
0.00488241
1.7404e-06
0.00488183
1.87151e-06
0.00488122
2.01284e-06
0.00488056
2.16507e-06
0.00487985
2.32898e-06
0.00487909
2.50544e-06
0.00487827
2.69534e-06
0.00487739
2.89968e-06
0.00487645
3.11951e-06
0.00487543
3.35596e-06
0.00487433
3.61026e-06
0.00487315
3.88372e-06
0.00487189
4.17774e-06
0.00487053
4.49387e-06
0.00486906
4.83371e-06
0.00486748
5.19903e-06
0.00486579
5.59169e-06
0.00486397
6.01365e-06
0.00486201
6.46706e-06
0.0048599
6.95416e-06
0.00485763
7.47738e-06
0.00485519
8.03931e-06
0.00485257
8.64272e-06
0.00484975
9.2906e-06
0.00484672
9.98612e-06
0.00484346
1.07322e-05
0.00483996
1.15324e-05
0.00483619
1.23916e-05
0.00483215
1.33138e-05
0.0048278
1.4302e-05
0.00482313
1.53608e-05
0.00481811
1.64953e-05
0.00481271
1.77107e-05
0.00480692
1.90121e-05
0.0048007
2.04049e-05
0.00479402
2.18951e-05
0.00478685
2.34886e-05
0.00477915
2.51917e-05
0.00477089
2.7011e-05
0.00476203
2.89534e-05
0.00475252
3.10257e-05
0.00474232
3.32351e-05
0.00473139
3.5589e-05
0.00471967
3.80948e-05
0.00470711
4.07599e-05
0.00469366
4.35919e-05
0.00467925
4.65982e-05
0.00466383
4.97861e-05
0.00464732
5.31624e-05
0.00462967
5.6734e-05
0.0046108
6.05067e-05
0.00459064
6.44862e-05
0.0045691
6.86768e-05
0.00454611
7.30822e-05
0.00452158
7.77049e-05
0.00449543
8.25456e-05
0.00446757
8.76037e-05
0.0044379
9.28763e-05
0.00440634
9.83586e-05
0.00437279
0.000104043
0.00433715
0.000109919
0.00429932
0.000115974
0.00425922
0.000122191
0.00421675
0.000128549
0.00417181
0.000135023
0.00412432
0.000141587
0.00407418
0.000148206
0.00402133
0.000154845
0.00396569
0.000161461
0.00390719
0.000168009
0.00384577
0.000174441
0.0037814
0.000180702
0.00371405
0.000186736
0.0036437
0.000192485
0.00357036
0.000197889
0.00349405
0.000202884
0.00020741
0.00341482
0.00500635
1.72236e-05
0.0050239
5.07528e-05
0.00504718
8.24003e-05
0.00506962
0.000105422
0.00508945
0.000121275
0.00510744
0.000132307
0.00512526
0.000140672
0.00514375
0.000148333
0.00516251
0.000155848
0.00518101
0.00016228
0.00519898
0.000167238
0.00521628
0.00017082
0.00523288
0.000172879
0.00524883
0.000173597
0.0052641
0.00017338
0.00527852
0.000172058
0.00529201
0.000169384
0.00530443
0.000165681
0.00531561
0.000161123
0.00532552
0.000155429
0.00533422
0.000148656
0.00534155
0.000141222
0.00534727
0.000133051
0.00535133
0.000123733
0.00535399
0.000113621
0.00535542
0.00010365
0.00535554
9.40001e-05
0.00535423
8.3998e-05
0.00535162
7.34416e-05
0.00534799
6.30823e-05
0.00534357
5.36636e-05
0.00533841
4.52048e-05
0.00533266
3.74248e-05
0.00532651
3.03657e-05
0.00532014
2.43346e-05
0.00531373
1.94209e-05
0.00530743
1.54457e-05
0.00530142
1.22391e-05
0.00529579
9.73516e-06
0.00529057
7.96985e-06
0.00528569
6.96088e-06
0.00528103
6.67154e-06
0.0052764
7.02566e-06
0.00527164
7.8989e-06
0.00526656
9.11499e-06
0.00526106
1.04603e-05
0.00525513
1.17124e-05
0.00524881
1.26867e-05
0.00524226
1.3258e-05
0.00523563
1.33691e-05
0.00522913
1.30309e-05
0.00522292
1.23088e-05
0.00521714
1.13008e-05
0.00521191
1.0116e-05
0.00520725
8.85802e-06
0.0052032
7.6133e-06
0.00519973
6.44564e-06
0.0051968
5.39579e-06
0.00519434
4.48427e-06
0.0051923
3.71558e-06
0.00519062
3.0831e-06
0.00518922
2.57367e-06
0.00518807
2.17116e-06
0.00518711
1.85885e-06
0.00518631
1.62107e-06
0.00518563
1.44388e-06
0.00518505
1.31565e-06
0.00518455
1.22678e-06
0.0051841
1.16979e-06
0.0051837
1.13877e-06
0.00518333
1.12921e-06
0.00518298
1.13776e-06
0.00518265
1.16182e-06
0.00518233
1.19964e-06
0.00518202
1.2498e-06
0.0051817
1.31148e-06
0.00518138
1.38405e-06
0.00518104
1.4672e-06
0.0051807
1.56081e-06
0.00518034
1.66485e-06
0.00517996
1.77956e-06
0.00517956
1.90517e-06
0.00517914
2.0421e-06
0.00517869
2.19087e-06
0.00517821
2.35207e-06
0.0051777
2.52646e-06
0.00517715
2.71481e-06
0.00517656
2.91804e-06
0.00517593
3.13719e-06
0.00517525
3.37331e-06
0.00517452
3.62763e-06
0.00517374
3.90145e-06
0.0051729
4.19613e-06
0.005172
4.51321e-06
0.00517102
4.8543e-06
0.00516998
5.22113e-06
0.00516886
5.61563e-06
0.00516765
6.0398e-06
0.00516636
6.49582e-06
0.00516496
6.98604e-06
0.00516346
7.51291e-06
0.00516185
8.0791e-06
0.00516012
8.68742e-06
0.00515825
9.34091e-06
0.00515625
1.00428e-05
0.0051541
1.07965e-05
0.00515178
1.16058e-05
0.00514929
1.24747e-05
0.00514662
1.34071e-05
0.00514374
1.44073e-05
0.00514065
1.54811e-05
0.00513733
1.66336e-05
0.00513377
1.7869e-05
0.00512993
1.91931e-05
0.00512582
2.06123e-05
0.0051214
2.21328e-05
0.00511665
2.37614e-05
0.00511155
2.55049e-05
0.00510607
2.73709e-05
0.00510019
2.93669e-05
0.00509388
3.15011e-05
0.00508711
3.3782e-05
0.00507985
3.62181e-05
0.00507205
3.88187e-05
0.0050637
4.15929e-05
0.00505473
4.45504e-05
0.00504513
4.7701e-05
0.00503483
5.10545e-05
0.0050238
5.46211e-05
0.00501199
5.84107e-05
0.00499935
6.24334e-05
0.00498581
6.66989e-05
0.00497133
7.12166e-05
0.00495584
7.59957e-05
0.00493928
8.10443e-05
0.00492159
8.637e-05
0.00490269
9.19794e-05
0.00488252
9.78777e-05
0.00486099
0.000104069
0.00483804
0.000110555
0.00481358
0.000117336
0.00478753
0.000124409
0.0047598
0.00013177
0.00473031
0.00013941
0.00469897
0.000147318
0.00466568
0.000155479
0.00463036
0.000163874
0.0045929
0.000172479
0.00455322
0.000181267
0.00451122
0.000190204
0.00446681
0.000199253
0.0044199
0.000208372
0.0043704
0.000217511
0.00431822
0.00022662
0.00426328
0.000235639
0.00420551
0.000244508
0.00414484
0.000253161
0.0040812
0.000261529
0.00401454
0.00026954
0.000277121
0.00394483
0.00500367
1.35584e-05
0.00501439
4.0031e-05
0.0050313
6.54908e-05
0.00504954
8.71795e-05
0.00506732
0.000103496
0.00508408
0.000115545
0.00510024
0.000124516
0.00511661
0.000131955
0.00513362
0.000138844
0.00515094
0.000144958
0.00516827
0.000149903
0.00518548
0.000153617
0.00520235
0.000156011
0.00521887
0.000157071
0.00523515
0.000157102
0.00525105
0.000156159
0.00526639
0.000154046
0.00528113
0.000150933
0.0052952
0.00014706
0.00530838
0.00014225
0.00532061
0.000136425
0.00533187
0.000129957
0.00534196
0.000122962
0.00535062
0.00011507
0.00535791
0.000106331
0.00536407
9.74941e-05
0.00536911
8.89562e-05
0.00537282
8.02892e-05
0.00537509
7.11699e-05
0.00537609
6.20824e-05
0.00537604
5.37226e-05
0.00537501
4.62266e-05
0.00537309
3.9348e-05
0.0053704
3.30514e-05
0.00536718
2.75602e-05
0.00536362
2.29842e-05
0.00535985
1.92087e-05
0.00535601
1.60804e-05
0.00535219
1.35576e-05
0.00534845
1.17045e-05
0.00534483
1.05899e-05
0.00534126
1.02346e-05
0.00533768
1.06107e-05
0.00533395
1.1626e-05
0.00532996
1.31058e-05
0.00532562
1.48046e-05
0.00532088
1.64488e-05
0.00531577
1.77919e-05
0.00531038
1.86519e-05
0.00530482
1.89301e-05
0.00529923
1.86151e-05
0.00529377
1.77695e-05
0.00528857
1.65062e-05
0.00528372
1.49615e-05
0.00527931
1.32717e-05
0.00527537
1.15567e-05
0.0052719
9.91002e-06
0.0052689
8.39608e-06
0.00526633
7.05225e-06
0.00526416
5.89347e-06
0.00526232
4.91802e-06
0.00526078
4.11346e-06
0.00525949
3.46144e-06
0.00525841
2.94124e-06
0.0052575
2.53234e-06
0.00525673
2.21575e-06
0.00525607
1.97502e-06
0.0052555
1.79618e-06
0.005255
1.66792e-06
0.00525456
1.58108e-06
0.00525416
1.52846e-06
0.00525379
1.5045e-06
0.00525345
1.50485e-06
0.00525312
1.52629e-06
0.0052528
1.56633e-06
0.00525249
1.62323e-06
0.00525218
1.69569e-06
0.00525186
1.78283e-06
0.00525154
1.88414e-06
0.00525121
1.99928e-06
0.00525086
2.12824e-06
0.00525049
2.2711e-06
0.00525011
2.42816e-06
0.0052497
2.59989e-06
0.00524926
2.78685e-06
0.0052488
2.98982e-06
0.0052483
3.20965e-06
0.00524777
3.44732e-06
0.00524721
3.70401e-06
0.0052466
3.98091e-06
0.00524595
4.27943e-06
0.00524525
4.60106e-06
0.0052445
4.94738e-06
0.00524369
5.32018e-06
0.00524282
5.72133e-06
0.00524189
6.15289e-06
0.00524089
6.61707e-06
0.00523981
7.11624e-06
0.00523866
7.65297e-06
0.00523741
8.22998e-06
0.00523608
8.8502e-06
0.00523464
9.51673e-06
0.00523309
1.02329e-05
0.00523143
1.10023e-05
0.00522965
1.18286e-05
0.00522773
1.2716e-05
0.00522566
1.36689e-05
0.00522345
1.46919e-05
0.00522106
1.579e-05
0.0052185
1.69682e-05
0.00521575
1.82327e-05
0.00521279
1.95897e-05
0.00520962
2.10448e-05
0.00520621
2.26048e-05
0.00520254
2.42769e-05
0.00519861
2.60686e-05
0.00519438
2.79878e-05
0.00518984
3.00429e-05
0.00518497
3.22426e-05
0.00517974
3.45962e-05
0.00517413
3.71133e-05
0.00516811
3.98038e-05
0.00516165
4.26784e-05
0.00515472
4.57479e-05
0.00514729
4.90235e-05
0.00513932
5.25168e-05
0.00513078
5.62396e-05
0.00512163
6.02041e-05
0.00511183
6.44225e-05
0.00510133
6.89073e-05
0.0050901
7.36707e-05
0.00507807
7.87252e-05
0.0050652
8.40825e-05
0.00505145
8.97544e-05
0.00503674
9.57518e-05
0.00502102
0.000102085
0.00500424
0.000108763
0.00498632
0.000115793
0.00496721
0.000123183
0.00494683
0.000130937
0.00492511
0.000139057
0.00490197
0.000147544
0.00487735
0.000156394
0.00485116
0.000165603
0.00482331
0.00017516
0.00479374
0.000185052
0.00476235
0.000195263
0.00472906
0.000205769
0.00469379
0.000216544
0.00465643
0.000227557
0.00461692
0.000238769
0.00457515
0.000250139
0.00453105
0.000261617
0.00448451
0.000273151
0.00443547
0.000284682
0.00438383
0.000296146
0.00432952
0.000307474
0.00427246
0.000318594
0.00421257
0.000329429
0.000339903
0.00414978
0.0050025
1.10566e-05
0.00500986
3.26756e-05
0.00502179
5.35616e-05
0.00503636
7.26021e-05
0.00505165
8.82141e-05
0.00506682
0.000100375
0.00508156
0.000109771
0.00509629
0.000117228
0.00511146
0.000123671
0.00512705
0.000129366
0.00514287
0.000134087
0.00515875
0.000137739
0.00517447
0.000140287
0.00518993
0.000141607
0.0052052
0.000141837
0.0052202
0.00014116
0.00523475
0.000139489
0.00524884
0.000136849
0.00526243
0.000133468
0.00527534
0.000129338
0.00528742
0.000124342
0.00529869
0.000118689
0.00530908
0.000112578
0.00531835
0.000105797
0.00532642
9.82571e-05
0.00533347
9.04486e-05
0.00533958
8.28458e-05
0.00534456
7.53058e-05
0.00534821
6.75214e-05
0.0053506
5.96974e-05
0.00535196
5.23547e-05
0.00535248
4.57091e-05
0.0053522
3.96276e-05
0.00535121
3.40432e-05
0.00534967
2.91005e-05
0.00534774
2.49166e-05
0.00534552
2.14286e-05
0.00534309
1.85073e-05
0.00534054
1.61103e-05
0.00533794
1.43062e-05
0.00533533
1.31927e-05
0.00533273
1.28332e-05
0.00533011
1.32337e-05
0.00532742
1.43215e-05
0.00532459
1.59284e-05
0.00532159
1.78035e-05
0.00531839
1.96566e-05
0.00531496
2.12146e-05
0.00531135
2.22652e-05
0.0053076
2.26827e-05
0.00530378
2.24356e-05
0.00529997
2.15759e-05
0.00529626
2.02158e-05
0.00529272
1.84999e-05
0.00528942
1.65794e-05
0.00528638
1.45916e-05
0.00528364
1.26484e-05
0.00528121
1.08309e-05
0.00527907
9.19018e-06
0.00527721
7.75139e-06
0.00527561
6.51964e-06
0.00527424
5.4862e-06
0.00527306
4.63393e-06
0.00527206
3.94156e-06
0.00527121
3.38681e-06
0.00527048
2.94829e-06
0.00526985
2.60679e-06
0.0052693
2.34565e-06
0.00526881
2.1509e-06
0.00526838
2.01105e-06
0.00526799
1.91686e-06
0.00526764
1.86098e-06
0.00526731
1.83761e-06
0.00526699
1.84229e-06
0.00526668
1.87155e-06
0.00526638
1.92283e-06
0.00526609
1.99417e-06
0.00526578
2.0842e-06
0.00526548
2.19198e-06
0.00526516
2.31688e-06
0.00526483
2.45864e-06
0.00526448
2.61718e-06
0.00526412
2.79269e-06
0.00526373
2.98558e-06
0.00526332
3.19639e-06
0.00526289
3.4259e-06
0.00526242
3.67501e-06
0.00526192
3.94481e-06
0.00526139
4.23655e-06
0.00526082
4.5516e-06
0.00526021
4.89146e-06
0.00525955
5.25785e-06
0.00525885
5.65252e-06
0.00525809
6.0775e-06
0.00525728
6.53493e-06
0.0052564
7.02711e-06
0.00525546
7.55661e-06
0.00525445
8.12609e-06
0.00525337
8.73848e-06
0.0052522
9.39688e-06
0.00525095
1.01046e-05
0.0052496
1.08652e-05
0.00524815
1.16825e-05
0.00524659
1.25605e-05
0.00524491
1.35036e-05
0.00524311
1.45165e-05
0.00524118
1.5604e-05
0.0052391
1.67717e-05
0.00523686
1.80252e-05
0.00523446
1.93703e-05
0.00523188
2.08139e-05
0.00522911
2.23629e-05
0.00522613
2.40242e-05
0.00522293
2.58055e-05
0.00521949
2.77151e-05
0.0052158
2.97614e-05
0.00521183
3.19537e-05
0.00520757
3.43015e-05
0.005203
3.68149e-05
0.00519809
3.95045e-05
0.00519282
4.23815e-05
0.00518717
4.54574e-05
0.0051811
4.87445e-05
0.0051746
5.22553e-05
0.00516762
5.60028e-05
0.00516013
6.00006e-05
0.00515211
6.42625e-05
0.00514351
6.88027e-05
0.0051343
7.36357e-05
0.00512443
7.87762e-05
0.00511386
8.42387e-05
0.00510255
9.0038e-05
0.00509044
9.61885e-05
0.00507749
0.000102704
0.00506365
0.000109599
0.00504885
0.000116884
0.00503304
0.000124573
0.00501615
0.000132676
0.00499813
0.000141201
0.00497891
0.000150156
0.00495842
0.000159546
0.0049366
0.000169373
0.00491335
0.000179637
0.00488862
0.000190334
0.00486233
0.000201456
0.00483439
0.000212992
0.00480472
0.000224925
0.00477326
0.000237236
0.0047399
0.000249897
0.00470458
0.000262878
0.00466721
0.000276143
0.0046277
0.000289647
0.00458597
0.000303343
0.00454195
0.000317176
0.00449555
0.000331086
0.00444668
0.000345007
0.00439529
0.00035887
0.00434128
0.000372598
0.0042846
0.000386113
0.000399334
0.00422517
0.00500186
9.19896e-06
0.00500731
2.72245e-05
0.0050161
4.47729e-05
0.00502766
6.10435e-05
0.00504054
7.53324e-05
0.00505394
8.69776e-05
0.00506738
9.63223e-05
0.00508083
0.000103787
0.00509454
0.000109959
0.00510864
0.000115263
0.00512303
0.000119696
0.00513758
0.000123197
0.00515211
0.000125749
0.00516649
0.000127231
0.00518066
0.000127663
0.0051946
0.000127224
0.00520817
0.000125918
0.00522131
0.000123708
0.00523401
0.000120768
0.00524614
0.00011721
0.00525753
0.000112949
0.0052682
0.000108026
0.00527815
0.000102621
0.00528723
9.67219e-05
0.00529523
9.02503e-05
0.00530222
8.34642e-05
0.0053083
7.67677e-05
0.0053134
7.02042e-05
0.00531738
6.35412e-05
0.00532028
5.67933e-05
0.00532233
5.03097e-05
0.00532367
4.43651e-05
0.00532434
3.89581e-05
0.00532435
3.40293e-05
0.00532381
2.96411e-05
0.00532286
2.58735e-05
0.00532159
2.26966e-05
0.00532008
2.0014e-05
0.0053184
1.77903e-05
0.00531662
1.60936e-05
0.00531477
1.50361e-05
0.0053129
1.47025e-05
0.00531102
1.51125e-05
0.00530914
1.62021e-05
0.00530726
1.7813e-05
0.00530536
1.97048e-05
0.00530342
2.15938e-05
0.00530143
2.32059e-05
0.00529937
2.43219e-05
0.00529725
2.48056e-05
0.00529507
2.46132e-05
0.00529286
2.3785e-05
0.00529065
2.24246e-05
0.00528848
2.0672e-05
0.00528638
1.8678e-05
0.00528439
1.65842e-05
0.00528253
1.45089e-05
0.00528082
1.25413e-05
0.00527927
1.07409e-05
0.00527788
9.14048e-06
0.00527665
7.7515e-06
0.00527556
6.57003e-06
0.00527462
5.5821e-06
0.00527379
4.76828e-06
0.00527307
4.10691e-06
0.00527244
3.57649e-06
0.00527189
3.157e-06
0.00527141
2.8307e-06
0.00527097
2.58232e-06
0.00527059
2.39909e-06
0.00527023
2.27051e-06
0.00526991
2.18803e-06
0.0052696
2.1449e-06
0.0052693
2.1357e-06
0.00526902
2.15628e-06
0.00526874
2.20339e-06
0.00526846
2.27459e-06
0.00526817
2.36807e-06
0.00526788
2.48254e-06
0.00526758
2.61714e-06
0.00526727
2.77138e-06
0.00526694
2.94508e-06
0.0052666
3.13832e-06
0.00526623
3.35147e-06
0.00526584
3.58508e-06
0.00526543
3.83992e-06
0.00526499
4.11698e-06
0.00526451
4.41741e-06
0.00526401
4.74255e-06
0.00526347
5.09392e-06
0.00526288
5.47316e-06
0.00526226
5.88213e-06
0.00526159
6.32283e-06
0.00526087
6.79746e-06
0.0052601
7.30842e-06
0.00525927
7.85831e-06
0.00525837
8.44996e-06
0.00525741
9.08635e-06
0.00525638
9.77076e-06
0.00525527
1.05066e-05
0.00525408
1.12977e-05
0.00525279
1.21479e-05
0.00525141
1.30614e-05
0.00524993
1.40429e-05
0.00524834
1.50971e-05
0.00524663
1.62295e-05
0.00524478
1.74454e-05
0.00524281
1.8751e-05
0.00524068
2.01526e-05
0.00523839
2.16569e-05
0.00523593
2.32713e-05
0.00523329
2.50037e-05
0.00523046
2.68619e-05
0.00522741
2.88546e-05
0.00522413
3.0991e-05
0.00522061
3.32807e-05
0.00521683
3.57341e-05
0.00521277
3.8362e-05
0.00520841
4.11757e-05
0.00520373
4.41873e-05
0.0051987
4.74092e-05
0.0051933
5.08548e-05
0.00518751
5.45378e-05
0.00518129
5.84725e-05
0.00517462
6.26738e-05
0.00516746
6.71571e-05
0.00515979
7.19382e-05
0.00515156
7.70336e-05
0.00514273
8.24598e-05
0.00513327
8.82338e-05
0.00512314
9.43726e-05
0.00511229
0.000100893
0.00510066
0.000107813
0.00508822
0.000115148
0.0050749
0.000122914
0.00506066
0.000131128
0.00504543
0.000139802
0.00502915
0.000148952
0.00501177
0.000158587
0.00499321
0.000168719
0.0049734
0.000179354
0.00495227
0.000190497
0.00492976
0.00020215
0.00490578
0.000214312
0.00488026
0.000226976
0.00485312
0.000240133
0.00482428
0.000253769
0.00479365
0.000267864
0.00476115
0.000282391
0.00472671
0.000297322
0.00469024
0.000312618
0.00465165
0.000328236
0.00461086
0.000344127
0.00456781
0.000360235
0.00452239
0.000376497
0.00447455
0.000392847
0.00442421
0.00040921
0.0043713
0.000425509
0.00431576
0.00044166
0.000457577
0.00425751
0.00500144
7.75519e-06
0.00500569
2.29768e-05
0.00501259
3.78787e-05
0.0050218
5.18321e-05
0.00503264
6.44868e-05
0.00504434
7.52771e-05
0.00505647
8.42004e-05
0.00506878
9.14751e-05
0.00508131
9.74213e-05
0.00509418
0.000102399
0.00510733
0.000106544
0.00512068
0.000109845
0.00513413
0.0001123
0.00514751
0.000113853
0.00516071
0.000114463
0.0051737
0.000114231
0.0051864
0.000113219
0.0051987
0.000111413
0.00521056
0.000108907
0.00522193
0.000105833
0.00523271
0.00010217
0.00524285
9.78924e-05
0.00525232
9.31426e-05
0.00526101
8.80386e-05
0.00526871
8.25496e-05
0.00527544
7.67381e-05
0.00528135
7.08554e-05
0.0052865
6.50541e-05
0.00529078
5.92546e-05
0.00529416
5.34133e-05
0.00529675
4.77271e-05
0.00529865
4.24574e-05
0.00529992
3.76918e-05
0.00530056
3.33875e-05
0.00530067
2.95315e-05
0.00530039
2.61592e-05
0.00529981
2.32691e-05
0.00529902
2.08111e-05
0.00529804
1.87671e-05
0.00529693
1.72013e-05
0.00529574
1.62238e-05
0.00529452
1.59238e-05
0.00529331
1.63258e-05
0.00529214
1.73705e-05
0.00529104
1.89104e-05
0.00529003
2.0721e-05
0.00528909
2.25361e-05
0.0052882
2.40955e-05
0.00528733
2.51881e-05
0.00528646
2.5679e-05
0.00528555
2.55194e-05
0.0052846
2.47396e-05
0.00528359
2.34315e-05
0.00528254
2.1724e-05
0.00528146
1.97594e-05
0.00528037
1.76741e-05
0.00527929
1.5585e-05
0.00527825
1.35827e-05
0.00527726
1.17302e-05
0.00527633
1.00647e-05
0.00527548
8.60283e-06
0.00527471
7.34505e-06
0.00527401
6.28125e-06
0.00527338
5.39496e-06
0.00527282
4.66656e-06
0.00527232
4.07587e-06
0.00527188
3.60344e-06
0.00527148
3.23171e-06
0.00527111
2.94516e-06
0.00527078
2.73061e-06
0.00527047
2.57702e-06
0.00527019
2.47525e-06
0.00526991
2.41801e-06
0.00526965
2.3993e-06
0.00526939
2.41451e-06
0.00526914
2.45995e-06
0.00526888
2.53281e-06
0.00526862
2.63099e-06
0.00526834
2.75295e-06
0.00526806
2.89765e-06
0.00526777
3.06447e-06
0.00526746
3.25314e-06
0.00526714
3.46369e-06
0.00526679
3.69645e-06
0.00526643
3.95201e-06
0.00526603
4.23117e-06
0.00526562
4.53498e-06
0.00526517
4.86468e-06
0.00526469
5.22169e-06
0.00526418
5.60766e-06
0.00526363
6.02438e-06
0.00526303
6.47387e-06
0.0052624
6.95832e-06
0.00526172
7.48014e-06
0.00526098
8.04199e-06
0.00526019
8.64671e-06
0.00525935
9.2974e-06
0.00525843
9.99739e-06
0.00525746
1.07502e-05
0.0052564
1.15597e-05
0.00525527
1.24299e-05
0.00525405
1.33652e-05
0.00525274
1.43703e-05
0.00525134
1.54502e-05
0.00524982
1.66103e-05
0.0052482
1.78563e-05
0.00524645
1.91945e-05
0.00524457
2.06314e-05
0.00524255
2.21741e-05
0.00524037
2.38301e-05
0.00523804
2.56074e-05
0.00523553
2.75146e-05
0.00523283
2.95608e-05
0.00522993
3.17553e-05
0.00522681
3.41084e-05
0.00522346
3.66309e-05
0.00521986
3.93341e-05
0.00521599
4.223e-05
0.00521183
4.53314e-05
0.00520737
4.86517e-05
0.00520257
5.22048e-05
0.00519742
5.60054e-05
0.00519189
6.00691e-05
0.00518595
6.44119e-05
0.00517958
6.90505e-05
0.00517273
7.40022e-05
0.00516538
7.92851e-05
0.0051575
8.49175e-05
0.00514904
9.09185e-05
0.00513997
9.73072e-05
0.00513024
0.000104103
0.0051198
0.000111326
0.00510862
0.000118996
0.00509664
0.000127131
0.0050838
0.000135751
0.00507005
0.000144875
0.00505534
0.000154518
0.00503959
0.000164698
0.00502275
0.00017543
0.00500474
0.000186725
0.0049855
0.000198594
0.00496496
0.000211045
0.00494302
0.000224082
0.00491963
0.000237705
0.00489469
0.000251912
0.00486813
0.000266695
0.00483986
0.00028204
0.0048098
0.000297929
0.00477785
0.000314338
0.00474394
0.000331236
0.00470797
0.000348585
0.00466986
0.000366343
0.00462953
0.000384457
0.0045869
0.000402871
0.00454187
0.000421519