/*--------------------------------*- C++ -*----------------------------------*\
| =========                 |                                                 |
| \\      /  F ield         | OpenFOAM: The Open Source CFD Toolbox           |
|  \\    /   O peration     | Version:  2306                                  |
|   \\  /    A nd           | Website:  www.openfoam.com                      |
|    \\/     M anipulation  |                                                 |
\*---------------------------------------------------------------------------*/
FoamFile
{
    version     2.0;
    format      ascii;
    arch        "LSB;label=32;scalar=64";
    class       volVectorField;
    location    "0.025";
    object      U;
}
// * * * * * * * * * * * * * * * * * * * * * * * * * * * * * * * * * * * * * //

dimensions      [0 1 -1 0 0 0 0];

internalField   nonuniform List<vector> 
17600
(
(9.80705 0.0849703 0)
(9.62298 0.180423 0)
(9.41223 0.217893 0)
(9.14695 0.22529 0)
(8.8355 0.22492 0)
(8.50007 0.224965 0)
(8.15894 0.226002 0)
(7.82065 0.226575 0)
(7.4884 0.223992 0)
(7.16211 0.21935 0)
(6.84147 0.213132 0)
(6.52691 0.204176 0)
(6.21893 0.195265 0)
(5.91939 0.185995 0)
(5.62976 0.173859 0)
(5.35211 0.162228 0)
(5.0894 0.151012 0)
(4.84234 0.135695 0)
(4.61026 0.119089 0)
(4.39478 0.105558 0)
(4.19811 0.0917646 0)
(4.02039 0.0739332 0)
(3.8617 0.0549536 0)
(3.72262 0.0390504 0)
(3.60295 0.0259654 0)
(3.50171 0.0135314 0)
(3.41802 0.00134391 0)
(3.3514 -0.00953173 0)
(3.30137 -0.0181996 0)
(3.26677 -0.0243357 0)
(3.24574 -0.0280578 0)
(3.23606 -0.0296694 0)
(3.23527 -0.0294278 0)
(3.24135 -0.0271374 0)
(3.25208 -0.0234263 0)
(3.26549 -0.0192276 0)
(3.27982 -0.0150055 0)
(3.29379 -0.0109933 0)
(3.30654 -0.00751647 0)
(3.3176 -0.00470283 0)
(3.32672 -0.0025867 0)
(3.33384 -0.00112386 0)
(3.33912 -0.000201162 0)
(3.3428 0.000321572 0)
(3.34518 0.000567096 0)
(3.34657 0.000639263 0)
(3.34725 0.000610082 0)
(3.34742 0.000524817 0)
(3.34728 0.000411443 0)
(3.34695 0.000317412 0)
(3.34654 0.000246962 0)
(3.34611 0.000194791 0)
(3.34572 0.00015726 0)
(3.34538 0.000131301 0)
(3.3451 0.000112927 0)
(3.34487 0.000100842 0)
(3.34469 9.37012e-05 0)
(3.34453 8.82178e-05 0)
(3.3444 8.48578e-05 0)
(3.34427 8.57126e-05 0)
(3.34413 9.10016e-05 0)
(3.34399 9.98357e-05 0)
(3.34383 0.000111044 0)
(3.34366 0.000123351 0)
(3.34346 0.000136438 0)
(3.34323 0.000150333 0)
(3.34297 0.000165033 0)
(3.34268 0.000180558 0)
(3.34236 0.000196971 0)
(3.34201 0.000214332 0)
(3.34162 0.00023273 0)
(3.3412 0.00025227 0)
(3.34074 0.000273045 0)
(3.34023 0.000295184 0)
(3.33968 0.000318797 0)
(3.33909 0.000344052 0)
(3.33845 0.000371089 0)
(3.33776 0.000400062 0)
(3.33701 0.000431129 0)
(3.3362 0.000464461 0)
(3.33533 0.000500265 0)
(3.33439 0.000538711 0)
(3.33338 0.000579997 0)
(3.33229 0.000624353 0)
(3.33112 0.000672011 0)
(3.32986 0.000723243 0)
(3.3285 0.000778296 0)
(3.32704 0.000837463 0)
(3.32546 0.000901066 0)
(3.32377 0.000969383 0)
(3.32194 0.00104284 0)
(3.31998 0.00112173 0)
(3.31787 0.00120654 0)
(3.3156 0.00129768 0)
(3.31315 0.00139555 0)
(3.31053 0.0015008 0)
(3.3077 0.00161379 0)
(3.30466 0.00173519 0)
(3.30139 0.00186561 0)
(3.29788 0.00200552 0)
(3.2941 0.0021558 0)
(3.29003 0.00231709 0)
(3.28566 0.00249006 0)
(3.28097 0.00267579 0)
(3.27592 0.00287489 0)
(3.2705 0.00308828 0)
(3.26467 0.00331717 0)
(3.25841 0.00356219 0)
(3.25168 0.0038251 0)
(3.24446 0.00410749 0)
(3.2367 0.00440869 0)
(3.22836 0.00472997 0)
(3.21942 0.00507435 0)
(3.20982 0.00544286 0)
(3.19951 0.00583643 0)
(3.18846 0.00625681 0)
(3.1766 0.00670528 0)
(3.16388 0.00718329 0)
(3.15025 0.00769261 0)
(3.13564 0.0082348 0)
(3.11999 0.00881133 0)
(3.10322 0.0094239 0)
(3.08528 0.0100742 0)
(3.06607 0.0107635 0)
(3.04553 0.0114932 0)
(3.02356 0.0122648 0)
(3.00009 0.0130793 0)
(2.97503 0.0139377 0)
(2.94827 0.0148407 0)
(2.91973 0.0157886 0)
(2.88931 0.0167817 0)
(2.85691 0.0178194 0)
(2.82242 0.018901 0)
(2.78575 0.0200248 0)
(2.7468 0.0211886 0)
(2.70545 0.0223895 0)
(2.66162 0.0236237 0)
(2.61521 0.0248861 0)
(2.56613 0.0261708 0)
(2.51429 0.0274707 0)
(2.45962 0.0287771 0)
(2.40205 0.0300801 0)
(2.34153 0.0313681 0)
(2.27803 0.0326281 0)
(2.21152 0.0338452 0)
(2.142 0.0350031 0)
(2.0695 0.0360839 0)
(1.99406 0.0370683 0)
(1.91578 0.0379358 0)
(1.83475 0.038665 0)
(1.75112 0.039234 0)
(1.66508 0.0396208 0)
(1.57684 0.0398044 0)
(1.48666 0.0397647 0)
(1.39483 0.0394843 0)
(1.3017 0.0389485 0)
(1.20763 0.0381467 0)
(1.11302 0.0370732 0)
(1.01831 0.035728 0)
(0.923958 0.0341171 0)
(10.0008 0.122213 0)
(10.0677 0.2719 0)
(10.1384 0.341971 0)
(10.1921 0.366921 0)
(10.2171 0.376426 0)
(10.2136 0.384653 0)
(10.1888 0.394136 0)
(10.1488 0.40322 0)
(10.0982 0.409375 0)
(10.0392 0.4119 0)
(9.97133 0.411446 0)
(9.89547 0.408173 0)
(9.81202 0.402772 0)
(9.72065 0.395746 0)
(9.62322 0.386557 0)
(9.52172 0.375396 0)
(9.41593 0.362376 0)
(9.30741 0.34668 0)
(9.19851 0.328746 0)
(9.08873 0.309635 0)
(8.97816 0.289294 0)
(8.86882 0.267041 0)
(8.763 0.242673 0)
(8.6617 0.217113 0)
(8.56484 0.191879 0)
(8.47282 0.167879 0)
(8.38662 0.144522 0)
(8.30725 0.120868 0)
(8.235 0.0973789 0)
(8.1698 0.0753638 0)
(8.11196 0.0556241 0)
(8.06116 0.038213 0)
(8.01739 0.0226935 0)
(7.98148 0.0095026 0)
(7.9525 -0.000630645 0)
(7.92977 -0.00755282 0)
(7.9129 -0.0118753 0)
(7.90109 -0.014343 0)
(7.89324 -0.0151174 0)
(7.88852 -0.014502 0)
(7.88606 -0.0129409 0)
(7.88499 -0.0108487 0)
(7.88461 -0.00855621 0)
(7.88435 -0.00632641 0)
(7.88383 -0.00434803 0)
(7.88279 -0.00272685 0)
(7.88117 -0.00146742 0)
(7.879 -0.000556407 0)
(7.87643 2.79732e-05 0)
(7.87366 0.00035986 0)
(7.87083 0.000508788 0)
(7.8681 0.000534928 0)
(7.86556 0.000489125 0)
(7.86331 0.000410466 0)
(7.86135 0.000325899 0)
(7.85969 0.000250925 0)
(7.85832 0.000194029 0)
(7.85719 0.000157831 0)
(7.85627 0.000141429 0)
(7.85551 0.000142612 0)
(7.85487 0.000158097 0)
(7.85433 0.000184788 0)
(7.85384 0.000220164 0)
(7.8534 0.000261552 0)
(7.85298 0.000306947 0)
(7.85257 0.000355114 0)
(7.85216 0.000405366 0)
(7.85174 0.000457359 0)
(7.8513 0.000511114 0)
(7.85084 0.000566774 0)
(7.85035 0.000624628 0)
(7.84983 0.000685012 0)
(7.84927 0.000748295 0)
(7.84867 0.000814915 0)
(7.84803 0.00088527 0)
(7.84735 0.000959839 0)
(7.84661 0.00103908 0)
(7.84581 0.00112348 0)
(7.84495 0.00121355 0)
(7.84403 0.00130978 0)
(7.84304 0.00141279 0)
(7.84197 0.00152313 0)
(7.84082 0.00164141 0)
(7.83959 0.00176834 0)
(7.83826 0.00190455 0)
(7.83682 0.00205084 0)
(7.83528 0.00220798 0)
(7.83362 0.0023768 0)
(7.83183 0.00255825 0)
(7.82991 0.00275322 0)
(7.82784 0.00296277 0)
(7.82561 0.003188 0)
(7.82321 0.00343004 0)
(7.82063 0.00369021 0)
(7.81786 0.00396982 0)
(7.81487 0.00427032 0)
(7.81166 0.00459329 0)
(7.8082 0.00494034 0)
(7.80448 0.00531327 0)
(7.80048 0.00571392 0)
(7.79618 0.00614429 0)
(7.79155 0.00660654 0)
(7.78657 0.00710293 0)
(7.78122 0.00763591 0)
(7.77546 0.00820811 0)
(7.76927 0.00882222 0)
(7.76262 0.00948121 0)
(7.75546 0.0101881 0)
(7.74777 0.0109466 0)
(7.7395 0.0117607 0)
(7.73062 0.0126326 0)
(7.72106 0.0135662 0)
(7.7108 0.0145669 0)
(7.69977 0.015639 0)
(7.68793 0.0167866 0)
(7.6752 0.0180146 0)
(7.66154 0.0193279 0)
(7.64687 0.0207319 0)
(7.63113 0.0222319 0)
(7.61422 0.0238337 0)
(7.59609 0.025543 0)
(7.57663 0.0273659 0)
(7.55577 0.0293083 0)
(7.5334 0.0313766 0)
(7.50942 0.0335769 0)
(7.48372 0.0359153 0)
(7.4562 0.0383982 0)
(7.42673 0.0410315 0)
(7.39519 0.0438209 0)
(7.36144 0.0467718 0)
(7.32536 0.0498891 0)
(7.28679 0.0531772 0)
(7.24558 0.0566395 0)
(7.20159 0.0602786 0)
(7.15465 0.064096 0)
(7.1046 0.0680916 0)
(7.05126 0.0722639 0)
(6.99447 0.0766093 0)
(6.93406 0.0811221 0)
(6.86983 0.0857942 0)
(6.80163 0.0906146 0)
(6.72927 0.0955691 0)
(6.65258 0.10064 0)
(6.57139 0.105807 0)
(6.48555 0.111043 0)
(6.39489 0.116319 0)
(6.29929 0.121601 0)
(6.19862 0.126849 0)
(6.09278 0.132021 0)
(5.98168 0.137066 0)
(5.86526 0.141933 0)
(5.74351 0.146564 0)
(5.61642 0.150899 0)
(5.48404 0.154873 0)
(5.34646 0.158422 0)
(5.20381 0.161479 0)
(5.05628 0.163981 0)
(4.9041 0.165864 0)
(4.74756 0.167071 0)
(4.58702 0.167551 0)
(10.0003 0.0613254 0)
(10.036 0.159918 0)
(10.09 0.22726 0)
(10.152 0.267529 0)
(10.2108 0.291915 0)
(10.2601 0.310484 0)
(10.2996 0.327623 0)
(10.3315 0.344356 0)
(10.3586 0.359647 0)
(10.383 0.371709 0)
(10.4047 0.38066 0)
(10.4232 0.386823 0)
(10.4381 0.389742 0)
(10.4488 0.390078 0)
(10.4551 0.388417 0)
(10.4574 0.383877 0)
(10.4557 0.376218 0)
(10.4503 0.366295 0)
(10.4417 0.354098 0)
(10.4297 0.339209 0)
(10.4135 0.32222 0)
(10.3932 0.303778 0)
(10.3702 0.283207 0)
(10.3461 0.259894 0)
(10.321 0.235387 0)
(10.2941 0.211733 0)
(10.2645 0.188584 0)
(10.2335 0.164122 0)
(10.2028 0.138395 0)
(10.1731 0.113686 0)
(10.1438 0.0916984 0)
(10.1144 0.0722294 0)
(10.0861 0.0548794 0)
(10.0598 0.0397655 0)
(10.0359 0.0273402 0)
(10.0144 0.0179048 0)
(9.99476 0.0109414 0)
(9.97723 0.00565115 0)
(9.96221 0.00194799 0)
(9.94935 -0.000238264 0)
(9.93822 -0.00114513 0)
(9.92839 -0.0010885 0)
(9.91939 -0.000369599 0)
(9.91069 0.000770977 0)
(9.90184 0.00211962 0)
(9.89258 0.00346055 0)
(9.88282 0.00462588 0)
(9.8726 0.00549702 0)
(9.86214 0.0060244 0)
(9.85171 0.00619668 0)
(9.84161 0.00605253 0)
(9.83207 0.00566116 0)
(9.82333 0.00510484 0)
(9.81551 0.00446357 0)
(9.80866 0.00380539 0)
(9.8028 0.00318192 0)
(9.79785 0.00262617 0)
(9.79373 0.00215547 0)
(9.79034 0.00177477 0)
(9.78756 0.00148001 0)
(9.78529 0.00126145 0)
(9.78342 0.00110699 0)
(9.78189 0.00100481 0)
(9.7806 0.000944753 0)
(9.77952 0.000918073 0)
(9.77858 0.000917336 0)
(9.77776 0.000936946 0)
(9.77702 0.000972624 0)
(9.77634 0.00102155 0)
(9.7757 0.00108165 0)
(9.77509 0.00115172 0)
(9.77448 0.00123098 0)
(9.77388 0.00131902 0)
(9.77328 0.00141582 0)
(9.77265 0.00152137 0)
(9.77201 0.00163607 0)
(9.77133 0.00176023 0)
(9.77063 0.00189439 0)
(9.76988 0.00203916 0)
(9.76909 0.00219513 0)
(9.76824 0.00236313 0)
(9.76734 0.0025439 0)
(9.76638 0.0027384 0)
(9.76535 0.00294765 0)
(9.76425 0.00317269 0)
(9.76306 0.00341476 0)
(9.76179 0.00367512 0)
(9.76042 0.00395513 0)
(9.75895 0.00425631 0)
(9.75737 0.0045802 0)
(9.75567 0.00492851 0)
(9.75385 0.00530306 0)
(9.75188 0.00570576 0)
(9.74977 0.00613875 0)
(9.7475 0.00660426 0)
(9.74506 0.00710469 0)
(9.74243 0.0076427 0)
(9.7396 0.00822101 0)
(9.73656 0.00884262 0)
(9.73329 0.00951071 0)
(9.72978 0.0102286 0)
(9.72599 0.0109999 0)
(9.72193 0.0118284 0)
(9.71755 0.0127184 0)
(9.71285 0.0136741 0)
(9.70779 0.0147003 0)
(9.70235 0.015802 0)
(9.6965 0.0169847 0)
(9.69021 0.0182535 0)
(9.68346 0.0196143 0)
(9.6762 0.021075 0)
(9.66839 0.0226422 0)
(9.66 0.0243216 0)
(9.65098 0.026121 0)
(9.6413 0.0280489 0)
(9.63089 0.0301137 0)
(9.61971 0.0323242 0)
(9.60771 0.0346897 0)
(9.59481 0.0372198 0)
(9.58097 0.0399249 0)
(9.56611 0.0428153 0)
(9.55016 0.0459021 0)
(9.53305 0.0491966 0)
(9.51469 0.0527103 0)
(9.495 0.0564551 0)
(9.47388 0.0604432 0)
(9.45124 0.0646867 0)
(9.42698 0.0691979 0)
(9.40099 0.073989 0)
(9.37315 0.079072 0)
(9.34335 0.0844584 0)
(9.31145 0.0901592 0)
(9.27733 0.0961849 0)
(9.24084 0.102544 0)
(9.20184 0.109246 0)
(9.16017 0.116295 0)
(9.11568 0.123698 0)
(9.06821 0.131455 0)
(9.01758 0.139566 0)
(8.96362 0.148028 0)
(8.90614 0.156832 0)
(8.84497 0.165969 0)
(8.77991 0.175421 0)
(8.71078 0.185168 0)
(8.63738 0.195182 0)
(8.55953 0.20543 0)
(8.47702 0.215874 0)
(8.38968 0.226466 0)
(8.29733 0.237153 0)
(8.19978 0.247874 0)
(8.09687 0.258558 0)
(7.98844 0.269131 0)
(7.87437 0.279509 0)
(7.75452 0.289601 0)
(7.6288 0.299312 0)
(7.49714 0.30854 0)
(7.35949 0.317182 0)
(7.21584 0.325129 0)
(7.06622 0.332277 0)
(6.9107 0.33852 0)
(10.0002 0.0416643 0)
(10.0199 0.116818 0)
(10.0538 0.178188 0)
(10.0985 0.223377 0)
(10.1474 0.254903 0)
(10.1942 0.277962 0)
(10.2366 0.296481 0)
(10.275 0.312954 0)
(10.3105 0.328079 0)
(10.3452 0.340751 0)
(10.3801 0.350703 0)
(10.4146 0.358186 0)
(10.4483 0.362578 0)
(10.4813 0.364168 0)
(10.5126 0.363803 0)
(10.5418 0.360844 0)
(10.5696 0.354872 0)
(10.5961 0.346943 0)
(10.6204 0.337297 0)
(10.6421 0.325007 0)
(10.6611 0.310371 0)
(10.6766 0.294627 0)
(10.6881 0.27739 0)
(10.6975 0.257365 0)
(10.7064 0.235389 0)
(10.7129 0.213832 0)
(10.7142 0.193136 0)
(10.7106 0.171632 0)
(10.7057 0.148878 0)
(10.7007 0.126771 0)
(10.694 0.107041 0)
(10.684 0.0895819 0)
(10.6718 0.07354 0)
(10.6593 0.0589038 0)
(10.647 0.0463916 0)
(10.6343 0.0361074 0)
(10.6213 0.0276804 0)
(10.6085 0.0209435 0)
(10.5968 0.0157594 0)
(10.586 0.0121882 0)
(10.576 0.0102003 0)
(10.5665 0.00962231 0)
(10.5573 0.0102189 0)
(10.548 0.0117253 0)
(10.5383 0.0138172 0)
(10.5277 0.0161019 0)
(10.5163 0.0181741 0)
(10.504 0.0197273 0)
(10.4911 0.0205741 0)
(10.4778 0.0206428 0)
(10.4646 0.0199772 0)
(10.4518 0.0187071 0)
(10.4398 0.0170082 0)
(10.4288 0.0150661 0)
(10.4189 0.0130491 0)
(10.4102 0.0110926 0)
(10.4027 0.00929106 0)
(10.3963 0.00770071 0)
(10.3909 0.00634542 0)
(10.3865 0.00522428 0)
(10.3828 0.00432002 0)
(10.3797 0.00360721 0)
(10.3772 0.00305767 0)
(10.3751 0.00264352 0)
(10.3734 0.00233929 0)
(10.3719 0.00212293 0)
(10.3706 0.00197664 0)
(10.3696 0.00188605 0)
(10.3686 0.00184029 0)
(10.3678 0.00183094 0)
(10.367 0.00185183 0)
(10.3663 0.00189845 0)
(10.3656 0.00196742 0)
(10.365 0.00205663 0)
(10.3643 0.00216434 0)
(10.3637 0.00228979 0)
(10.3631 0.00243233 0)
(10.3624 0.00259187 0)
(10.3617 0.00276856 0)
(10.361 0.00296262 0)
(10.3603 0.00317472 0)
(10.3595 0.00340547 0)
(10.3587 0.00365582 0)
(10.3578 0.00392683 0)
(10.3569 0.00421966 0)
(10.3559 0.0045358 0)
(10.3548 0.00487672 0)
(10.3537 0.00524413 0)
(10.3525 0.00563995 0)
(10.3512 0.00606613 0)
(10.3498 0.00652492 0)
(10.3483 0.00701865 0)
(10.3466 0.00754985 0)
(10.3449 0.00812129 0)
(10.343 0.00873588 0)
(10.341 0.00939676 0)
(10.3388 0.0101074 0)
(10.3365 0.0108714 0)
(10.334 0.0116927 0)
(10.3313 0.0125756 0)
(10.3284 0.0135244 0)
(10.3253 0.014544 0)
(10.322 0.0156394 0)
(10.3184 0.0168161 0)
(10.3145 0.01808 0)
(10.3104 0.0194372 0)
(10.3059 0.0208945 0)
(10.3011 0.0224591 0)
(10.2959 0.0241377 0)
(10.2904 0.0259381 0)
(10.2844 0.0278713 0)
(10.278 0.0299465 0)
(10.2711 0.0321705 0)
(10.2637 0.0345539 0)
(10.2558 0.0371083 0)
(10.2473 0.0398449 0)
(10.2381 0.0427757 0)
(10.2282 0.0459132 0)
(10.2177 0.0492705 0)
(10.2063 0.0528615 0)
(10.1941 0.0567007 0)
(10.1811 0.0608029 0)
(10.167 0.0651838 0)
(10.152 0.0698595 0)
(10.1358 0.0748465 0)
(10.1185 0.0801618 0)
(10.1 0.0858227 0)
(10.0801 0.0918467 0)
(10.0588 0.0982514 0)
(10.036 0.105054 0)
(10.0115 0.112273 0)
(9.98535 0.119924 0)
(9.95736 0.128024 0)
(9.92741 0.136589 0)
(9.89539 0.145631 0)
(9.86117 0.155164 0)
(9.82461 0.165197 0)
(9.78558 0.175739 0)
(9.74392 0.186796 0)
(9.69949 0.198367 0)
(9.65213 0.210452 0)
(9.60167 0.223043 0)
(9.54794 0.236128 0)
(9.49078 0.24969 0)
(9.43001 0.263703 0)
(9.36545 0.278137 0)
(9.2969 0.292953 0)
(9.2242 0.308104 0)
(9.14714 0.323533 0)
(9.06554 0.339177 0)
(8.97922 0.35496 0)
(8.88798 0.3708 0)
(8.79166 0.386604 0)
(8.69006 0.402269 0)
(8.58303 0.417686 0)
(8.47041 0.432737 0)
(8.35205 0.447296 0)
(8.22781 0.461235 0)
(8.09759 0.474419 0)
(7.96129 0.486713 0)
(10.0001 0.0315183 0)
(10.0129 0.0912223 0)
(10.0361 0.14415 0)
(10.0683 0.187397 0)
(10.1063 0.220383 0)
(10.1456 0.24525 0)
(10.1836 0.264632 0)
(10.2197 0.280702 0)
(10.2535 0.294881 0)
(10.2864 0.307045 0)
(10.32 0.316776 0)
(10.3536 0.324233 0)
(10.3868 0.329095 0)
(10.4205 0.331169 0)
(10.4535 0.331038 0)
(10.4849 0.328726 0)
(10.5159 0.323873 0)
(10.5472 0.317001 0)
(10.5769 0.308565 0)
(10.6042 0.298026 0)
(10.6303 0.285318 0)
(10.6539 0.271389 0)
(10.6733 0.256332 0)
(10.6904 0.239122 0)
(10.7085 0.220002 0)
(10.7257 0.200925 0)
(10.7372 0.182829 0)
(10.7427 0.164632 0)
(10.7467 0.145539 0)
(10.7517 0.126614 0)
(10.7549 0.109294 0)
(10.7536 0.0936419 0)
(10.7489 0.0790121 0)
(10.7433 0.065432 0)
(10.7379 0.0535338 0)
(10.7315 0.0436691 0)
(10.7239 0.0356406 0)
(10.7158 0.0291078 0)
(10.7079 0.0239273 0)
(10.7005 0.0201851 0)
(10.6932 0.0179598 0)
(10.686 0.0172403 0)
(10.6788 0.0179446 0)
(10.6716 0.0198734 0)
(10.664 0.0226599 0)
(10.6557 0.0258109 0)
(10.6466 0.0288067 0)
(10.6368 0.0312017 0)
(10.6262 0.0326779 0)
(10.6152 0.0330744 0)
(10.604 0.0323922 0)
(10.5929 0.0307657 0)
(10.5822 0.0284147 0)
(10.5721 0.0255943 0)
(10.5628 0.0225533 0)
(10.5544 0.0195048 0)
(10.547 0.0166111 0)
(10.5406 0.0139799 0)
(10.535 0.0116696 0)
(10.5303 0.00969902 0)
(10.5263 0.0080586 0)
(10.523 0.00672114 0)
(10.5202 0.0056504 0)
(10.5178 0.00480714 0)
(10.5158 0.00415363 0)
(10.5142 0.00365578 0)
(10.5127 0.00328463 0)
(10.5115 0.003016 0)
(10.5105 0.00283061 0)
(10.5095 0.00271305 0)
(10.5087 0.00265142 0)
(10.5079 0.00263664 0)
(10.5072 0.00266168 0)
(10.5066 0.00272154 0)
(10.5059 0.00281227 0)
(10.5053 0.00293132 0)
(10.5047 0.00307675 0)
(10.504 0.00324738 0)
(10.5034 0.0034426 0)
(10.5027 0.00366204 0)
(10.5021 0.00390594 0)
(10.5013 0.00417461 0)
(10.5006 0.00446877 0)
(10.4998 0.00478943 0)
(10.499 0.00513772 0)
(10.4981 0.00551518 0)
(10.4971 0.00592343 0)
(10.4961 0.00636439 0)
(10.495 0.00684025 0)
(10.4938 0.0073533 0)
(10.4926 0.00790616 0)
(10.4912 0.00850162 0)
(10.4897 0.00914263 0)
(10.4882 0.00983254 0)
(10.4865 0.0105748 0)
(10.4847 0.0113732 0)
(10.4828 0.0122318 0)
(10.4807 0.0131552 0)
(10.4785 0.0141479 0)
(10.4761 0.0152151 0)
(10.4735 0.0163622 0)
(10.4707 0.0175949 0)
(10.4677 0.0189195 0)
(10.4645 0.0203423 0)
(10.4611 0.0218706 0)
(10.4574 0.0235119 0)
(10.4534 0.0252742 0)
(10.4491 0.0271662 0)
(10.4445 0.0291967 0)
(10.4396 0.0313752 0)
(10.4343 0.0337137 0)
(10.4286 0.0362235 0)
(10.4224 0.0389144 0)
(10.4158 0.0417989 0)
(10.4088 0.0448906 0)
(10.4012 0.0482034 0)
(10.393 0.0517518 0)
(10.3842 0.0555512 0)
(10.3748 0.0596178 0)
(10.3647 0.0639685 0)
(10.3539 0.068621 0)
(10.3423 0.0735939 0)
(10.3298 0.0789063 0)
(10.3164 0.0845783 0)
(10.3021 0.0906305 0)
(10.2867 0.097084 0)
(10.2702 0.10396 0)
(10.2525 0.111282 0)
(10.2336 0.119071 0)
(10.2133 0.12735 0)
(10.1916 0.136142 0)
(10.1683 0.145468 0)
(10.1434 0.15535 0)
(10.1168 0.165809 0)
(10.0884 0.176864 0)
(10.058 0.188533 0)
(10.0255 0.200831 0)
(9.99086 0.213773 0)
(9.95386 0.227369 0)
(9.9144 0.241625 0)
(9.87234 0.256544 0)
(9.82753 0.272124 0)
(9.77982 0.288358 0)
(9.72905 0.305231 0)
(9.67508 0.322723 0)
(9.61772 0.340807 0)
(9.55683 0.359444 0)
(9.49222 0.378591 0)
(9.42373 0.398193 0)
(9.35117 0.418185 0)
(9.27439 0.438493 0)
(9.19319 0.459031 0)
(9.1074 0.479704 0)
(9.01686 0.500405 0)
(8.92137 0.521018 0)
(8.82079 0.541419 0)
(8.71493 0.561473 0)
(8.60365 0.581038 0)
(8.48678 0.599968 0)
(8.3642 0.618111 0)
(10.0001 0.0251616 0)
(10.0093 0.0737203 0)
(10.0262 0.118437 0)
(10.0502 0.157135 0)
(10.0799 0.188615 0)
(10.1124 0.213453 0)
(10.1454 0.233066 0)
(10.1782 0.248888 0)
(10.2096 0.262337 0)
(10.24 0.273863 0)
(10.271 0.283179 0)
(10.3021 0.290403 0)
(10.3326 0.295454 0)
(10.3636 0.29791 0)
(10.3945 0.298086 0)
(10.424 0.296427 0)
(10.4532 0.29264 0)
(10.4832 0.286729 0)
(10.512 0.2793 0)
(10.5384 0.270343 0)
(10.564 0.259484 0)
(10.5879 0.247167 0)
(10.6075 0.233919 0)
(10.6246 0.21934 0)
(10.6437 0.203285 0)
(10.6635 0.186895 0)
(10.6777 0.17117 0)
(10.6851 0.155606 0)
(10.6909 0.139312 0)
(10.6986 0.122665 0)
(10.7053 0.106872 0)
(10.7072 0.0924959 0)
(10.7054 0.0793189 0)
(10.7029 0.0672808 0)
(10.701 0.0567753 0)
(10.6982 0.0480574 0)
(10.6939 0.0409057 0)
(10.6887 0.0349607 0)
(10.6834 0.0300986 0)
(10.6784 0.0264541 0)
(10.6733 0.0242203 0)
(10.668 0.0235119 0)
(10.6628 0.0243222 0)
(10.6575 0.0264835 0)
(10.652 0.0296443 0)
(10.6462 0.033304 0)
(10.64 0.0368939 0)
(10.6334 0.0398813 0)
(10.6264 0.0418572 0)
(10.619 0.0425872 0)
(10.6114 0.0420238 0)
(10.6037 0.0402827 0)
(10.5962 0.0375943 0)
(10.5889 0.0342474 0)
(10.582 0.0305385 0)
(10.5756 0.0267332 0)
(10.5699 0.023044 0)
(10.5647 0.0196213 0)
(10.5601 0.0165562 0)
(10.5561 0.0138902 0)
(10.5527 0.0116268 0)
(10.5497 0.00974389 0)
(10.5472 0.00820436 0)
(10.545 0.00696462 0)
(10.5432 0.00598033 0)
(10.5416 0.00520975 0)
(10.5403 0.00461602 0)
(10.5391 0.00416756 0)
(10.5381 0.0038383 0)
(10.5372 0.00360701 0)
(10.5364 0.00345681 0)
(10.5356 0.00337445 0)
(10.5349 0.00334952 0)
(10.5343 0.00337422 0)
(10.5337 0.00344243 0)
(10.5331 0.00354978 0)
(10.5325 0.00369294 0)
(10.5319 0.00386962 0)
(10.5313 0.00407832 0)
(10.5306 0.00431807 0)
(10.53 0.00458857 0)
(10.5293 0.0048898 0)
(10.5286 0.00522226 0)
(10.5278 0.0055868 0)
(10.5271 0.00598453 0)
(10.5262 0.00641699 0)
(10.5253 0.00688592 0)
(10.5243 0.00739341 0)
(10.5233 0.00794187 0)
(10.5222 0.00853387 0)
(10.521 0.00917233 0)
(10.5198 0.00986043 0)
(10.5184 0.0106015 0)
(10.5169 0.0113994 0)
(10.5154 0.0122581 0)
(10.5137 0.013182 0)
(10.5119 0.0141759 0)
(10.5099 0.0152447 0)
(10.5078 0.016394 0)
(10.5056 0.0176297 0)
(10.5031 0.0189579 0)
(10.5005 0.0203854 0)
(10.4977 0.0219192 0)
(10.4947 0.0235669 0)
(10.4915 0.0253367 0)
(10.488 0.0272375 0)
(10.4843 0.0292784 0)
(10.4803 0.0314696 0)
(10.476 0.0338217 0)
(10.4713 0.0363458 0)
(10.4663 0.0390547 0)
(10.461 0.0419615 0)
(10.4552 0.045079 0)
(10.4491 0.0484213 0)
(10.4424 0.0520041 0)
(10.4353 0.0558435 0)
(10.4276 0.0599565 0)
(10.4194 0.0643611 0)
(10.4106 0.0690762 0)
(10.4011 0.0741215 0)
(10.3909 0.0795179 0)
(10.38 0.0852871 0)
(10.3683 0.0914518 0)
(10.3557 0.0980354 0)
(10.3423 0.105062 0)
(10.3278 0.112558 0)
(10.3123 0.120547 0)
(10.2957 0.129057 0)
(10.2779 0.138115 0)
(10.2588 0.147747 0)
(10.2384 0.15798 0)
(10.2165 0.168842 0)
(10.1931 0.180359 0)
(10.1681 0.192557 0)
(10.1413 0.205459 0)
(10.1127 0.21909 0)
(10.0821 0.233471 0)
(10.0494 0.248619 0)
(10.0146 0.26455 0)
(9.97736 0.281277 0)
(9.93769 0.298806 0)
(9.89541 0.31714 0)
(9.85039 0.336276 0)
(9.80246 0.356204 0)
(9.75149 0.376908 0)
(9.69731 0.398361 0)
(9.63977 0.420532 0)
(9.57871 0.443376 0)
(9.51396 0.466841 0)
(9.44536 0.490864 0)
(9.37274 0.515369 0)
(9.29594 0.540272 0)
(9.2148 0.565476 0)
(9.12914 0.590872 0)
(9.0388 0.616342 0)
(8.94363 0.641755 0)
(8.84347 0.666973 0)
(8.73816 0.691848 0)
(8.62757 0.716225 0)
(8.51155 0.739945 0)
(10 0.0206438 0)
(10.0071 0.0608942 0)
(10.02 0.0986429 0)
(10.0386 0.132521 0)
(10.0624 0.161414 0)
(10.0892 0.185177 0)
(10.1177 0.204428 0)
(10.147 0.220003 0)
(10.1759 0.232926 0)
(10.204 0.243849 0)
(10.2327 0.252766 0)
(10.2615 0.259728 0)
(10.2895 0.264755 0)
(10.3179 0.267552 0)
(10.3466 0.268234 0)
(10.3739 0.267187 0)
(10.4008 0.26425 0)
(10.4289 0.259333 0)
(10.4562 0.252952 0)
(10.4809 0.245277 0)
(10.5047 0.235962 0)
(10.5275 0.225239 0)
(10.5463 0.213779 0)
(10.5624 0.201539 0)
(10.5809 0.188082 0)
(10.6008 0.173808 0)
(10.6155 0.159609 0)
(10.6229 0.145547 0)
(10.6285 0.13107 0)
(10.6368 0.116324 0)
(10.645 0.102275 0)
(10.6489 0.0896163 0)
(10.6487 0.0782943 0)
(10.6481 0.0680857 0)
(10.6482 0.0590588 0)
(10.6475 0.0513421 0)
(10.6452 0.0448292 0)
(10.6418 0.0392993 0)
(10.6383 0.0346904 0)
(10.635 0.0311612 0)
(10.6315 0.0289452 0)
(10.6277 0.0282059 0)
(10.6239 0.0289747 0)
(10.6201 0.0311208 0)
(10.6163 0.0343274 0)
(10.6126 0.0381071 0)
(10.6088 0.0418803 0)
(10.6048 0.0450876 0)
(10.6008 0.0472865 0)
(10.5966 0.048207 0)
(10.5923 0.0477689 0)
(10.5879 0.0460625 0)
(10.5835 0.043305 0)
(10.5791 0.0397846 0)
(10.5748 0.0358079 0)
(10.5707 0.031659 0)
(10.5668 0.0275725 0)
(10.5633 0.0237224 0)
(10.56 0.0202215 0)
(10.5571 0.0171293 0)
(10.5544 0.0144631 0)
(10.5521 0.01221 0)
(10.5501 0.0103384 0)
(10.5483 0.00880667 0)
(10.5468 0.00757013 0)
(10.5455 0.00658506 0)
(10.5443 0.00581138 0)
(10.5433 0.00521402 0)
(10.5424 0.00476315 0)
(10.5415 0.00443404 0)
(10.5408 0.00420655 0)
(10.5401 0.00406451 0)
(10.5395 0.00399509 0)
(10.5389 0.00398828 0)
(10.5383 0.00403631 0)
(10.5378 0.00413325 0)
(10.5372 0.00427463 0)
(10.5366 0.00445721 0)
(10.5361 0.00467872 0)
(10.5355 0.00493764 0)
(10.5349 0.00523317 0)
(10.5342 0.00556505 0)
(10.5335 0.00593353 0)
(10.5328 0.00633935 0)
(10.5321 0.0067836 0)
(10.5313 0.00726784 0)
(10.5304 0.00779394 0)
(10.5295 0.00836412 0)
(10.5285 0.00898099 0)
(10.5275 0.00964741 0)
(10.5264 0.0103666 0)
(10.5251 0.011142 0)
(10.5239 0.0119775 0)
(10.5225 0.0128772 0)
(10.521 0.0138457 0)
(10.5194 0.0148879 0)
(10.5176 0.0160093 0)
(10.5158 0.0172154 0)
(10.5138 0.0185124 0)
(10.5117 0.019907 0)
(10.5093 0.0214061 0)
(10.5069 0.0230172 0)
(10.5042 0.0247484 0)
(10.5014 0.0266083 0)
(10.4983 0.0286061 0)
(10.495 0.0307518 0)
(10.4914 0.0330559 0)
(10.4876 0.0355297 0)
(10.4835 0.0381856 0)
(10.4791 0.0410359 0)
(10.4743 0.0440947 0)
(10.4692 0.047377 0)
(10.4638 0.0508977 0)
(10.4579 0.0546729 0)
(10.4515 0.0587201 0)
(10.4448 0.0630578 0)
(10.4375 0.0677052 0)
(10.4296 0.0726828 0)
(10.4212 0.0780121 0)
(10.4122 0.0837157 0)
(10.4025 0.0898174 0)
(10.392 0.0963419 0)
(10.3808 0.103315 0)
(10.3688 0.110765 0)
(10.356 0.118718 0)
(10.3421 0.127204 0)
(10.3273 0.136252 0)
(10.3114 0.145894 0)
(10.2944 0.156159 0)
(10.2761 0.167081 0)
(10.2565 0.178691 0)
(10.2355 0.19102 0)
(10.2131 0.2041 0)
(10.189 0.217962 0)
(10.1633 0.232635 0)
(10.1357 0.248148 0)
(10.1063 0.264527 0)
(10.0748 0.281795 0)
(10.0412 0.299973 0)
(10.0053 0.319079 0)
(9.96693 0.339124 0)
(9.92604 0.360116 0)
(9.88245 0.382056 0)
(9.836 0.404939 0)
(9.78656 0.428751 0)
(9.73395 0.453469 0)
(9.67802 0.479065 0)
(9.61862 0.505496 0)
(9.55557 0.532711 0)
(9.4887 0.560648 0)
(9.41786 0.589233 0)
(9.34288 0.618378 0)
(9.2636 0.647986 0)
(9.17985 0.677945 0)
(9.09147 0.708134 0)
(8.99831 0.738418 0)
(8.90023 0.768654 0)
(8.79708 0.798687 0)
(8.68872 0.828357 0)
(8.57502 0.857496 0)
(10 0.0172361 0)
(10.0056 0.0510352 0)
(10.016 0.08311 0)
(10.0309 0.112558 0)
(10.0503 0.138517 0)
(10.0728 0.160587 0)
(10.0972 0.178961 0)
(10.1233 0.194052 0)
(10.1496 0.206474 0)
(10.1756 0.216849 0)
(10.2023 0.225352 0)
(10.229 0.231999 0)
(10.2549 0.236898 0)
(10.2811 0.239958 0)
(10.3077 0.24109 0)
(10.3331 0.240485 0)
(10.3581 0.238232 0)
(10.3844 0.234266 0)
(10.4101 0.228776 0)
(10.4333 0.222048 0)
(10.4556 0.214114 0)
(10.4773 0.20506 0)
(10.4953 0.195187 0)
(10.5105 0.184497 0)
(10.5278 0.172691 0)
(10.547 0.159959 0)
(10.5617 0.147071 0)
(10.5692 0.134482 0)
(10.5748 0.12204 0)
(10.5836 0.109676 0)
(10.5931 0.0978222 0)
(10.5983 0.0869493 0)
(10.5994 0.0771144 0)
(10.5998 0.0681449 0)
(10.6011 0.0600197 0)
(10.6019 0.0528648 0)
(10.601 0.0467139 0)
(10.599 0.0414772 0)
(10.5969 0.0371213 0)
(10.595 0.0337795 0)
(10.5928 0.0316756 0)
(10.5903 0.0309882 0)
(10.5878 0.0317665 0)
(10.5854 0.0338914 0)
(10.5831 0.0370563 0)
(10.581 0.0407904 0)
(10.5791 0.0445356 0)
(10.5772 0.04775 0)
(10.5755 0.0499969 0)
(10.5738 0.0510001 0)
(10.572 0.0506633 0)
(10.5702 0.0490557 0)
(10.5682 0.0463728 0)
(10.5661 0.0428854 0)
(10.564 0.0388898 0)
(10.5618 0.0346668 0)
(10.5596 0.0304553 0)
(10.5575 0.0264379 0)
(10.5555 0.0227393 0)
(10.5536 0.0194312 0)
(10.5518 0.0165425 0)
(10.5502 0.0140701 0)
(10.5487 0.0119901 0)
(10.5474 0.0102663 0)
(10.5462 0.00885696 0)
(10.5451 0.00771982 0)
(10.5442 0.00681489 0)
(10.5433 0.00610638 0)
(10.5426 0.00556305 0)
(10.5419 0.00515851 0)
(10.5412 0.00487094 0)
(10.5406 0.00468236 0)
(10.5401 0.0045785 0)
(10.5396 0.0045478 0)
(10.539 0.00458134 0)
(10.5385 0.00467208 0)
(10.538 0.00481467 0)
(10.5375 0.00500516 0)
(10.537 0.00524066 0)
(10.5364 0.00551922 0)
(10.5358 0.00583969 0)
(10.5352 0.00620158 0)
(10.5346 0.006605 0)
(10.5339 0.00705061 0)
(10.5332 0.00753955 0)
(10.5325 0.00807339 0)
(10.5317 0.00865413 0)
(10.5308 0.00928418 0)
(10.5299 0.00996628 0)
(10.5289 0.0107036 0)
(10.5278 0.0114996 0)
(10.5267 0.0123581 0)
(10.5254 0.0132833 0)
(10.5241 0.0142799 0)
(10.5227 0.0153528 0)
(10.5212 0.0165076 0)
(10.5195 0.0177501 0)
(10.5178 0.0190867 0)
(10.5159 0.0205242 0)
(10.5139 0.0220698 0)
(10.5117 0.0237314 0)
(10.5093 0.0255173 0)
(10.5068 0.0274363 0)
(10.5041 0.0294981 0)
(10.5012 0.0317129 0)
(10.498 0.0340917 0)
(10.4946 0.0366464 0)
(10.491 0.0393895 0)
(10.4871 0.0423346 0)
(10.4829 0.0454958 0)
(10.4784 0.0488884 0)
(10.4736 0.0525289 0)
(10.4684 0.0564344 0)
(10.4628 0.0606229 0)
(10.4567 0.0651137 0)
(10.4503 0.0699276 0)
(10.4433 0.0750859 0)
(10.4359 0.0806117 0)
(10.4278 0.0865291 0)
(10.4192 0.0928634 0)
(10.41 0.0996413 0)
(10.4 0.106891 0)
(10.3893 0.114641 0)
(10.3779 0.122922 0)
(10.3656 0.131767 0)
(10.3524 0.141207 0)
(10.3382 0.151276 0)
(10.3229 0.16201 0)
(10.3066 0.173444 0)
(10.2891 0.185615 0)
(10.2703 0.198558 0)
(10.2501 0.212312 0)
(10.2285 0.226912 0)
(10.2054 0.242394 0)
(10.1806 0.258794 0)
(10.154 0.276145 0)
(10.1256 0.294479 0)
(10.0951 0.313826 0)
(10.0626 0.334211 0)
(10.0278 0.355658 0)
(9.99055 0.378184 0)
(9.9508 0.401802 0)
(9.90837 0.426516 0)
(9.86309 0.452328 0)
(9.81481 0.479226 0)
(9.76337 0.507193 0)
(9.7086 0.536201 0)
(9.65033 0.566212 0)
(9.58839 0.597175 0)
(9.52261 0.629029 0)
(9.45281 0.661698 0)
(9.37882 0.695096 0)
(9.30047 0.72912 0)
(9.2176 0.763658 0)
(9.13004 0.798581 0)
(9.03763 0.833751 0)
(8.94023 0.869016 0)
(8.83769 0.904216 0)
(8.72988 0.939179 0)
(8.61669 0.973729 0)
(10 0.0145527 0)
(10.0046 0.0431814 0)
(10.0131 0.0705956 0)
(10.0255 0.0961153 0)
(10.0417 0.11913 0)
(10.0608 0.139205 0)
(10.082 0.156304 0)
(10.1052 0.170604 0)
(10.1291 0.182428 0)
(10.153 0.192229 0)
(10.1777 0.20026 0)
(10.2026 0.206574 0)
(10.2267 0.211294 0)
(10.2511 0.214418 0)
(10.2758 0.215805 0)
(10.2995 0.215556 0)
(10.3228 0.213841 0)
(10.3474 0.210592 0)
(10.3716 0.205885 0)
(10.3937 0.200127 0)
(10.415 0.193487 0)
(10.4356 0.185765 0)
(10.4526 0.176934 0)
(10.4668 0.167255 0)
(10.4831 0.156891 0)
(10.5019 0.145989 0)
(10.5168 0.134967 0)
(10.5247 0.124233 0)
(10.5306 0.113771 0)
(10.5398 0.103347 0)
(10.5498 0.0930354 0)
(10.5559 0.083237 0)
(10.5578 0.0742477 0)
(10.559 0.0660957 0)
(10.5613 0.0587584 0)
(10.5633 0.0522936 0)
(10.5638 0.0467361 0)
(10.5631 0.0420317 0)
(10.5623 0.0381466 0)
(10.5616 0.0351819 0)
(10.5606 0.0333397 0)
(10.5593 0.0327968 0)
(10.558 0.033605 0)
(10.5568 0.0356477 0)
(10.5558 0.038636 0)
(10.5551 0.0421384 0)
(10.5546 0.0456465 0)
(10.5544 0.0486623 0)
(10.5544 0.0507789 0)
(10.5545 0.0517337 0)
(10.5546 0.0514274 0)
(10.5547 0.0499128 0)
(10.5546 0.0473612 0)
(10.5543 0.0440172 0)
(10.5538 0.0401538 0)