/*--------------------------------*- C++ -*----------------------------------*\
| =========                 |                                                 |
| \\      /  F ield         | OpenFOAM: The Open Source CFD Toolbox           |
|  \\    /   O peration     | Version:  2306                                  |
|   \\  /    A nd           | Website:  www.openfoam.com                      |
|    \\/     M anipulation  |                                                 |
\*---------------------------------------------------------------------------*/
FoamFile
{
    version     2.0;
    format      ascii;
    arch        "LSB;label=32;scalar=64";
    class       volScalarField;
    location    "0.5";
    object      p;
}
// * * * * * * * * * * * * * * * * * * * * * * * * * * * * * * * * * * * * * //

dimensions      [0 2 -2 0 0 0 0];

internalField   nonuniform List<scalar> 
4400
(
484.253
483.237
482.33
481.658
481.208
480.901
480.657
480.428
480.195
479.954
479.708
479.461
479.214
478.968
478.724
478.48
478.237
477.993
477.75
477.505
477.261
477.016
476.772
476.529
476.287
476.046
475.808
475.571
475.338
475.108
474.883
474.662
474.446
474.236
474.033
473.837
473.649
473.47
473.3
473.14
472.99
472.852
472.726
472.611
472.51
472.421
472.346
472.283
472.234
472.197
472.172
472.157
472.151
472.151
472.154
472.156
472.152
472.136
472.102
472.043
471.952
471.824
471.659
471.473
471.312
471.225
471.284
471.565
472.096
472.844
473.715
474.414
474.689
474.491
474.395
474.315
474.738
474.926
474.691
474.547
482.79
482.448
482.016
481.574
481.183
480.858
480.59
480.354
480.131
479.906
479.675
479.438
479.197
478.955
478.711
478.468
478.226
477.983
477.741
477.498
477.255
477.011
476.768
476.526
476.285
476.044
475.806
475.57
475.338
475.108
474.882
474.661
474.445
474.235
474.031
473.835
473.646
473.465
473.293
473.131
472.98
472.838
472.709
472.591
472.487
472.394
472.315
472.248
472.195
472.153
472.123
472.104
472.093
472.089
472.087
472.085
472.078
472.06
472.025
471.965
471.875
471.75
471.591
471.412
471.25
471.17
471.251
471.585
472.213
473.141
474.24
475.154
475.175
474.372
473.912
473.7
473.924
474.578
474.845
474.837
482.244
482.079
481.821
481.504
481.17
480.855
480.574
480.324
480.095
479.873
479.65
479.421
479.186
478.946
478.704
478.462
478.219
477.977
477.735
477.493
477.25
477.008
476.766
476.524
476.283
476.043
475.806
475.57
475.337
475.107
474.881
474.659
474.442
474.23
474.024
473.825
473.633
473.449
473.272
473.105
472.947
472.799
472.661
472.534
472.418
472.313
472.218
472.136
472.064
472.004
471.953
471.91
471.876
471.844
471.818
471.789
471.755
471.714
471.658
471.586
471.493
471.383
471.261
471.144
471.071
471.1
471.283
471.655
472.221
472.955
473.722
474.281
474.45
474.271
474.312
474.537
475.056
475.851
475.204
474.284
481.829
481.729
481.555
481.323
481.057
480.784
480.522
480.276
480.047
479.826
479.607
479.384
479.156
478.923
478.686
478.446
478.205
477.964
477.723
477.482
477.241
476.999
476.758
476.517
476.277
476.038
475.799
475.564
475.331
475.1
474.873
474.649
474.431
474.216
474.008
473.805
473.608
473.418
473.236
473.062
472.895
472.737
472.588
472.448
472.317
472.196
472.085
471.983
471.89
471.805
471.728
471.658
471.592
471.53
471.468
471.405
471.34
471.264
471.183
471.087
470.987
470.879
470.78
470.702
470.678
470.738
470.907
471.2
471.608
472.112
472.645
473.119
473.471
473.701
473.868
474.03
474.196
474.411
474.629
475.281
481.529
481.46
481.336
481.162
480.95
480.717
480.479
480.244
480.017
479.797
479.578
479.358
479.134
478.905
478.672
478.435
478.197
477.957
477.716
477.476
477.234
476.993
476.752
476.511
476.271
476.032
475.793
475.557
475.322
475.091
474.862
474.636
474.415
474.198
473.985
473.778
473.576
473.38
473.192
473.008
472.834
472.664
472.504
472.351
472.206
472.068
471.938
471.816
471.7
471.591
471.487
471.387
471.291
471.194
471.099
470.999
470.897
470.788
470.673
470.553
470.431
470.31
470.204
470.122
470.087
470.106
470.204
470.377
470.638
470.963
471.341
471.719
472.071
472.357
472.565
472.766
473.008
473.446
474.001
474.474
481.311
481.259
481.162
481.024
480.849
480.648
480.433
480.212
479.99
479.771
479.553
479.334
479.112
478.886
478.657
478.422
478.186
477.947
477.708
477.467
477.226
476.985
476.744
476.502
476.262
476.022
475.783
475.546
475.309
475.077
474.845
474.618
474.393
474.172
473.956
473.744
473.537
473.334
473.139
472.946
472.763
472.583
472.411
472.245
472.085
471.931
471.783
471.64
471.502
471.369
471.237
471.111
470.98
470.855
470.722
470.591
470.451
470.309
470.159
470.007
469.855
469.704
469.572
469.449
469.37
469.314
469.328
469.377
469.507
469.672
469.9
470.13
470.383
470.592
470.806
471.015
471.308
471.692
472.081
472.373
481.152
481.11
481.029
480.912
480.761
480.584
480.388
480.18
479.966
479.749
479.532
479.314
479.093
478.869
478.642
478.409
478.175
477.937
477.699
477.458
477.217
476.976
476.734
476.492
476.251
476.01
475.77
475.532
475.294
475.059
474.825
474.595
474.367
474.142
473.921
473.705
473.49
473.283
473.078
472.879
472.685
472.495
472.312
472.132
471.957
471.787
471.621
471.459
471.299
471.143
470.985
470.831
470.672
470.515
470.35
470.184
470.009
469.832
469.647
469.457
469.27
469.077
468.899
468.724
468.574
468.444
468.354
468.29
468.283
468.296
468.368
468.439
468.546
468.65
468.766
468.919
469.102
469.341
469.593
469.829
481.04
481.003
480.932
480.828
480.693
480.532
480.35
480.152
479.945
479.732
479.517
479.298
479.078
478.855
478.628
478.398
478.165
477.928
477.69
477.45
477.208
476.966
476.724
476.481
476.239
475.996
475.756
475.515
475.275
475.038
474.801
474.568
474.336
474.108
473.882
473.66
473.44
473.226
473.012
472.806
472.602
472.402
472.206
472.014
471.824
471.639
471.455
471.273
471.095
470.912
470.735
470.549
470.368
470.175
469.984
469.78
469.575
469.359
469.135
468.91
468.672
468.437
468.2
467.962
467.74
467.519
467.324
467.148
466.991
466.87
466.758
466.685
466.61
466.578
466.543
466.56
466.59
466.68
466.818
467.001
480.968
480.934
480.869
480.772
480.647
480.495
480.322
480.131
479.93
479.719
479.505
479.287
479.067
478.844
478.618
478.389
478.156
477.92
477.682
477.441
477.199
476.957
476.712
476.469
476.225
475.982
475.739
475.496
475.254
475.015
474.774
474.538
474.302
474.069
473.839
473.61
473.385
473.164
472.943
472.729
472.514
472.304
472.098
471.89
471.689
471.487
471.287
471.087
470.887
470.685
470.483
470.273
470.063
469.843
469.621
469.384
469.146
468.89
468.632
468.357
468.077
467.784
467.486
467.181
466.873
466.567
466.256
465.963
465.659
465.39
465.101
464.857
464.599
464.385
464.172
464.004
463.866
463.794
463.804
463.917
480.933
480.9
480.837
480.744
480.623
480.477
480.307
480.12
479.92
479.712
479.499
479.281
479.06
478.837
478.611
478.382
478.149
477.912
477.674
477.433
477.189
476.947
476.7
476.457
476.21
475.966
475.72
475.475
475.231
474.988
474.745
474.505
474.265
474.027
473.793
473.557
473.328
473.097
472.87
472.646
472.423
472.202
471.985
471.765
471.55
471.334
471.115
470.902
470.679
470.459
470.233
470.001
469.763
469.518
469.263
468.996
468.724
468.429
468.132
467.811
467.479
467.133
466.766
466.392
465.996
465.591
465.172
464.747
464.301
463.87
463.403
462.968
462.508
462.083
461.659
461.283
460.941
460.694
460.547
460.545
480.932
480.899
480.835
480.743
480.622
480.476
480.306
480.118
479.918
479.709
479.496
479.278
479.057
478.833
478.606
478.377
478.143
477.906
477.666
477.425
477.18
476.936
476.687
476.443
476.194
475.948
475.7
475.453
475.206
474.959
474.713
474.469
474.225
473.982
473.743
473.5
473.267
473.027
472.794
472.562
472.327
472.1
471.869
471.637
471.412
471.178
470.948
470.715
470.474
470.235
469.988
469.73
469.473
469.197
468.913
468.621
468.306
467.982
467.639
467.271
466.893
466.484
466.054
465.604
465.118
464.617
464.079
463.522
462.929
462.318
461.676
461.024
460.34
459.685
459.007
458.382
457.815
457.334
456.976
456.838
480.967
480.93
480.864
480.769
480.644
480.493
480.317
480.126
479.923
479.713
479.498
479.279
479.058
478.834
478.605
478.375
478.139
477.901
477.66
477.417
477.171
476.925
476.675
476.429
476.177
475.93
475.679
475.428
475.18
474.928
474.679
474.431
474.181
473.936
473.69
473.442
473.203
472.955
472.716
472.474
472.231
471.995
471.752
471.509
471.273
471.021
470.781
470.528
470.272
470.016
469.745
469.469
469.187
468.884
468.577
468.25
467.905
467.545
467.158
466.75
466.314
465.853
465.353
464.828
464.258
463.647
463.001
462.301
461.552
460.768
459.92
459.035
458.123
457.173
456.213
455.31
454.416
453.655
453.038
452.627
481.037
480.997
480.926
480.823
480.688
480.527
480.342
480.144
479.935
479.722
479.504
479.285
479.063
478.837
478.608
478.375
478.137
477.897
477.655
477.409
477.162
476.914
476.662
476.414
476.16
475.91
475.657
475.402
475.152
474.895
474.644
474.39
474.137
473.887
473.634
473.381
473.136
472.879
472.637
472.383
472.133
471.888
471.632
471.384
471.13
470.868
470.616
470.345
470.074
469.802
469.507
469.218
468.909
468.583
468.252
467.895
467.515
467.125
466.697
466.24
465.766
465.235
464.679
464.079
463.415
462.715
461.944
461.103
460.205
459.223
458.164
457.034
455.837
454.584
453.283
451.994
450.762
449.57
448.609
447.851
481.147
481.101
481.022
480.905
480.755
480.576
480.377
480.169
479.952
479.736
479.515
479.295
479.071
478.845
478.613
478.377
478.137
477.894
477.65
477.402
477.154
476.902
476.651
476.399
476.143
475.891
475.633
475.377
475.122
474.861
474.607
474.348
474.09
473.836
473.576
473.32
473.066
472.802
472.555
472.29
472.035
471.782
471.509
471.262
470.986
470.718
470.454
470.161
469.887
469.59
469.277
468.979
468.638
468.295
467.944
467.548
467.151
466.723
466.251
465.767
465.229
464.658
464.029
463.368
462.613
461.814
460.941
459.95
458.891
457.735
456.42
455.037
453.555
451.882
450.233
448.489
446.726
445.063
443.576
442.356
481.302
481.249
481.156
481.016
480.84
480.637
480.419
480.198
479.974
479.754
479.531
479.311
479.084
478.857
478.62
478.382
478.138
477.893
477.647
477.395
477.147
476.892
476.639
476.384
476.126
475.871
475.609
475.35
475.091
474.827
474.569
474.305
474.041
473.784
473.515
473.258
472.993
472.727
472.471
472.196
471.939
471.67
471.394
471.136
470.846
470.574
470.291
469.987
469.703
469.383
469.062
468.742
468.379
468.025
467.641
467.229
466.799
466.342
465.839
465.307
464.744
464.099
463.434
462.696
461.855
460.992
459.981
458.864
457.685
456.279
454.758
453.124
451.222
449.208
447.044
444.76
442.35
440.03
437.822
435.882
481.517
481.449
481.33
481.152
480.939
480.702
480.463
480.228
479.999
479.776
479.553
479.33
479.101
478.871
478.628
478.388
478.139
477.893
477.643
477.39
477.14
476.881
476.628
476.368
476.109
475.849
475.586
475.322
475.059
474.792
474.528
474.262
473.99
473.733
473.452
473.197
472.918
472.65
472.388
472.1
471.847
471.555
471.286
471.009
470.708
470.438
470.129
469.82
469.529
469.177
468.865
468.513
468.135
467.768
467.36
466.921
466.478
465.982
465.454
464.886
464.288
463.584
462.891
462.07
461.166
460.239
459.088
457.899
456.543
454.962
453.226
451.301
449.004
446.543
443.845
440.812
437.616
434.403
431.187
428.201
481.815
481.718
481.548
481.312
481.045
480.767
480.506
480.257
480.027
479.801
479.578
479.352
479.118
478.883
478.635
478.392
478.139
477.892
477.638
477.385
477.132
476.871
476.616
476.352
476.091
475.827
475.56
475.293
475.027
474.753
474.488
474.214
473.94
473.677
473.387
473.134
472.839
472.577
472.296
472.009
471.748
471.442
471.175
470.879
470.577
470.295
469.973
469.659
469.357
468.986
468.674
468.299
467.906
467.531
467.083
466.654
466.153
465.673
465.078
464.516
463.872
463.122
462.414
461.501
460.545
459.576
458.262
457.04
455.558
453.738
451.907
449.658
446.96
444.079
440.693
436.774
432.558
428.074
423.418
418.909
482.229
482.067
481.813
481.492
481.156
480.837
480.556
480.303
480.074
479.846
479.62
479.384
479.146
478.9
478.65
478.402
478.146
477.897
477.64
477.385
477.128
476.866
476.606
476.341
476.074
475.807
475.539
475.263
475.001
474.713
474.454
474.166
473.894
473.621
473.328
473.07
472.765
472.506
472.206
471.927
471.646
471.341
471.066
470.756
470.458
470.16
469.836
469.515
469.194
468.824
468.499
468.094
467.733
467.28
466.882
466.382
465.889
465.412
464.727
464.245
463.468
462.744
462.048
460.917
460.128
458.92
457.606
456.336
454.642
452.802
450.795
448.156
445.324
441.978
437.821
433.008
427.38
420.961
414.019
407.448
482.773
482.435
482.006
481.562
481.168
480.839
480.57
480.332
480.108
479.877
479.644
479.399
479.154
478.905
478.652
478.404
478.147
477.896
477.64
477.38
477.123
476.857
476.594
476.328
476.056
475.788
475.515
475.236
474.971
474.677
474.417
474.121
473.849
473.566
473.273
473.006
472.697
472.435
472.123
471.848
471.55
471.249
470.962
470.65
470.341
470.038
469.7
469.386
469.051
468.677
468.355
467.919
467.576
467.101
466.713
466.18
465.712
465.161
464.495
464.014
463.109
462.512
461.658
460.596
459.721
458.505
457.138
455.802
453.863
452.234
449.681
447.199
443.98
440.4
435.383
430.197
422.355
413.698
401.78
390.94
484.234
483.225
482.321
481.646
481.192
480.882
480.636
480.405
480.17
479.925
479.674
479.421
479.167
478.917
478.662
478.412
478.156
477.902
477.645
477.383
477.123
476.856
476.591
476.323
476.049
475.779
475.503
475.226
474.951
474.666
474.39
474.104
473.82
473.541
473.245
472.969
472.671
472.389
472.095
471.802
471.511
471.21
470.91
470.612
470.29
469.995
469.654
469.342
468.991
468.645
468.282
467.886
467.513
467.045
466.643
466.121
465.65
465.043
464.545
463.773
463.155
462.383
461.488
460.557
459.583
458.317
457.107
455.434
453.971
451.72
449.558
446.776
443.769
439.32
435.075
428.271
420.645
408.535
393.07
368.458
474.497
474.181
473.931
473.643
473.361
473.213
473.161
473.236
473.527
473.79
474.061
474.567
475.103
475.213
475.201
475.675
476.551
477.673
478.72
478.525
474.844
474.436
473.905
473.524
473.168
473.019
472.972
473.077
473.351
473.721
474.091
474.422
474.563
474.461
474.491
475.011
475.883
477.001
478.086
478.306
474.151
474.164
473.971
473.559
473.126
472.807
472.654
472.849
473.287
473.73
474.125
474.28
474.028
473.483
473.411
473.912
474.763
475.806
477.026
477.862
476.168
476.05
474.088
472.836
472.016
471.966
472.404
472.686
473.319
474.025
474.426
474.283
473.59
472.773
472.611
473.075
473.837
474.623
475.792
477.21
474.429
473.977
473.172
472.723
471.961
471.214
470.445
471.392
473.313
474.326
474.738
474.552
473.747
472.83
472.418
472.395
472.792
473.539
474.76
476.499
472.445
472.414
472.127
471.557
470.608
469.63
470.42
472.336
473.107
474.581
475.2
475.041
474.177
473.414
472.792
471.766
472.892
474.631
474.069
475.83
470.057
470.178
470.208
469.952
469.796
469.757
470.657
471.617
473.493
475.081
475.278
475.501
475.067
474.177
472.45
471.924
472.401
472.483
471.546
475.814
467.267
467.488
467.785
468.016
468.475
469.162
470.219
471.648
473.388
474.617
475.379
475.685
475.387
474.972
475.009
474.629
475.485
476.854
476.019
480.572
464.148
464.487
464.967
465.593
466.471
467.589
469.103
470.876
472.878
474.74
476.583
477.562
476.674
475.495
473.879
472.573
473.565
475.961
476.962
483.994
460.732
461.093
461.703
462.568
463.735
465.182
467.137
469.433
472.057
474.231
475.262
475.78
476.512
475.663
475.913
478.278
482.211
484.273
482.476
493.997
456.878
457.226
457.886
458.853
460.259
462.112
464.348
467.146
470.358
474.373
478.616
481.825
478.615
473.409
475.481
478.281
481.468
482.263
479.378
485.72
452.527
452.73
453.378
454.479
456.03
458.195
460.974
464.191
467.147
469.72
471.506
472.543
471.762
473.496
477.77
481.083
482.301
483.728
485.093
486.636
447.454
447.509
448.066
449.247
451.047
453.429
456.453
460.281
464.674
468.76
471.698
473.356
475.014
478.036
481.352
482.805
483.074
483.706
482.773
483.49
441.518
441.289
441.742
442.925
445.044
447.901
451.065
454.331
457.958
462.215
466.702
471.385
475.889
479.399
481.727
482.954
482.736
481.646
480.562
480.461
434.499
433.802
434.02
435.233
437.533
441.134
446.04
451.077
455.077
457.906
460.981
465.882
471.64
476.158
479.594
481.493
481.435
479.626
478.095
477.574
425.875
424.575
424.59
426.035
428.643
431.876
435.894
441.096
447.094
453.041
458.515
463.627
468.502
473.102
477.02
478.9
478.495
476.163
474
473.644
415.068
412.532
412.192
414.414
419.261
424.899
429.84
433.522
437.686
444.044
451.213
457.718
463.298
468.487
472.488
474.24
473.364
470.852
468.697
468.557
401.351
397.327
396.581
398.573
402.916
409.416
417.972
426.197
433.112
438.88
444.714
450.831
456.529
461.646
465.828
467.747
466.945
464.949
463.318
463.136
380.289
376.372
379.229
385.097
390.617
395.599
402.327
411.912
422.04
430.315
436.717
442.752
448.467
453.477
457.737
459.906
459.823
458.3
457.251
457.817
341.993
341.481
348.617
359.062
371.038
383.198
393.622
402.566
411.459
419.986
427.241
433.528
439.267
444.372
448.899
451.917
452.306
451.572
451.921
453.155
299.357
321.486
321.953
325.115
338.051
358.643
377.481
390.841
400.723
409.568
417.327
424.106
430.055
435.161
439.968
443.638
445.64
446.849
447.878
449.763
317.369
314.236
309.023
306.93
315.635
334.904
358.089
376.653
388.856
398.112
406.51
414.246
420.927
426.461
431.723
436.505
440.248
442.563
444.689
447.521
304.805
309.776
301.326
297.455
305.369
318.406
339.012
361.108
376.625
386.944
395.46
403.597
411.285
417.873
423.794
429.371
434.043
438.152
442.242
444.531
311.829
311.421
300.538
300.057
302.555
310.148
326.126
347.742
364.51
375.878
384.601
393.098
401.201
408.293
414.733
421.169
427.489
432.737
436.541
438.587
306.279
306.04
301.891
303.625
308.587
311.694
320.544
337.974
353.595
364.936
374.115
382.663
390.926
398.525
405.474
412.213
418.51
423.887
428.246
431.475
305.41
302.628
303.081
308.941
318.452
316.708
331.052
332.794
344.143
353.854
362.201
371.043
380.055
388.322
395.58
402.328
408.93
415.345
420.877
423.809
302.09
300.815
301.345
310.989
319.648
331.046
331.355
332.694
337.098
342.748
350.424
359.384
368.624
377.421
385.363
392.57
399.42
405.903
410.966
413.378
301.001
299.258
300.422
309.097
315.789
324.833
326.012
332.259
327.249
330.864
338.444
347.245
356.708
366.017
374.373
381.785
388.598
394.852
399.644
402.269
299.237
299.294
299.508
301.545
305.711
309.595
312.443
314.639
313.497
315.753
323.562
333.786
344.08
354.059
363.075
370.803
377.637
383.659
388.373
390.684
295.861
294.778
293.595
288.251
285.593
283.319
284.931
286.305
290.937
295.667
305.701
318.595
330.895
341.943
351.235
358.992
365.886
372.025
376.494
378.863
288.421
285.923
281.122
268.932
257.507
249.622
248.106
250.674
260.493
270.326
284.031
301.078
316.515
329.287
339.379
347.619
354.746
360.829
365.278
367.473
276.54
273.543
264.029
245.527
224.671
211.809
206.932
212.252
227.139
242.824
260.745
282.066
301.17
316.257
327.4
336.296
343.99
350.124
354.182
356.258
265.248
261.288
247.754
224.175
197.861
180.932
171.992
178.185
198.465
217.499
237.95
264.257
287.069
303.629
315.63
325.539
333.658
339.765
343.932
346.116
256.793
252.098
236.031
208.352
179.04
159.45
148.653
156.286
178.475
196.611
219.843
250.109
275.216
292.716
305.574
316.052
324.352
330.442
334.781
336.894
252.404
248.366
231.342
201.343
170.509
149.449
139.569
148.16
167.921
185.121
209.66
240.625
265.821
283.758
297.435
308.358
316.599
322.684
326.973
328.994
252.193
247.236
231.211
204.994
174.516
153.876
145.228
153.078
170.697
184.179
208.788
237.526
260.892
278.419
292.117
302.808
310.59
316.399
320.927
322.792
253.165
247.588
235.615
215.89
190.382
172.191
164.384
169.472
180.981
194.758
215.59
240.067
260.998
277.523
290.159
299.44
306.689
312.085
316.315
317.933
257.673
253.467
245.217
232.164
213.803
198.47
190.155
191.645
198.825
210.166
226.483
247.197
265.525
280.198
290.704
298.694
305.002
309.583
313.04
314.721
265.08
261.243
256.583
251.694
241.167
228.766
219.197
217.703
220.706
227.732
242.367
258.938
273.784
284.795
292.802
299.556
304.836
308.657
311.507
312.802
271.811
270.173
269.56
272.633
269.074
260.816
252.057
247.396
245.879
250.961
261.851
273.558
283.69
290.744
296.911
302.016
305.694
308.625
310.929
311.97
280.082
281.17
283.67
291.901
294.759
291.798
285.679
278.266
274.933
277.342
282.346
289.386
293.925
297.912
301.96
304.823
307.105
309.24
310.859
311.714
287.598
289.426
296.708
306.794
314.597
316.776
313.92
307.125
303.075
301.468
301.971
303.647
303.868
305.511
306.854
307.821
309.069
310.352
311.5
311.836
296.582
295.551
305.916
316.427
326.397
332.83
333.891
330.428
325.285
320.595
317.627
314.463
312.468
311.917
311.111
310.988
311.179
311.166
311.483
311.763
308.384
306.503
312.114
321.302
330.455
340.411
344.844
344.488
339.251
333.02
327.415
321.744
318.412
315.799
313.849
313.043
312.451
312.01
311.957
311.944
315.39
313.619
315.784
323.052
331.403
341.002
348.712
349.87
346.04
338.605
332.081
325.949
321.835
318.208
315.842
314.488
313.453
312.641
312.257
311.757
316.32
315.003
316.915
323.114
330.362
339.484
346.447
348.728
346.441
338.771
332.801
327.453
323.002
319.342
316.965
315.148
313.763
312.471
311.217
311.428
314.515
314.52
316.551
321.741
327.938
335.457
341.303
343.14
342.851
334.833
330.207
325.974
321.908
318.848
316.648
314.892
313.629
313.098
312.673
312.228
311.043
311.643
314.157
318.939
323.97
330.012
333.95
334.688
334.286
329.829
325.679
322.315
318.892
316.973
315.553
314.64
313.991
312.956
311.696
311.672
305.438
306.487
309.466
314.07
318.623
322.84
324.635
325.087
324.555
321.737
319.235
317.028
315.121
314.18
313.338
312.675
312.181
312.113
312.087
312.749
297.466
298.592
301.594
305.458
308.967
311.942
312.663
313.425
312.605
311.617
311.21
310.602
310.134
310.367
310.708
311.209
311.992
312.945
313.536
312.957
286.993
287.853
290.109
292.49
294.438
296.176
296.771
297.827
298.206
300.061
301.699
303.212
304.926
306.841
308.454
310.065
311.239
311.763
312.03
313.453
274.137
274.165
274.702
274.892
274.747
275.18
276.179
278.02
281.218
286.101
290.832
295.369
299.265
302.544
305.275
307.601
310.011
312.678
315.52
316.163
259.244
258.11
256.233
253.491
250.743
249.919
251.871
255.717
262.512
270.481
279.157
286.944
293.155
298.317
302.986
307.451
311.235
314.052
315.661
316.485
243.708
241.105
236.638
230.631
225.026
223.341
226.326
232.717
242.567
253.886
267.036
278.541
287.591
294.918
301.028
305.888
310.289
314.178
317.568
320.512
229.701
225.605
218.473
209.416
201.734
199.128
202.645
211.705
223.92
238.177
255.344
270.206
282.077
291.522
299.256
306.349
312.66
318.307
322.553
323.393
218.455
213.401
204.453
193.088
183.982
180.715
184.073
194.94
208.883
224.911
245.068
263.031
277.567
289.154
299.06
307.565
314.523
319.65
323.821
327.651
211.15
205.784
196.164
183.538
173.708
170.118
172.992
184.018
198.714
215.208
237.587
257.834
274.336
287.57
298.491
307.96
316.392
324.433
331.141
334.859
209.233
203.952
194.415
181.769
172.121
168.065
170.35
180.445
194.388
212.201
234.062
255.309
272.667
287.386
300.049
311.035
321.016
329.967
336.861
338.741
212.855
207.853
198.77
187.096
178.267
173.798
175.077
183.529
196.326
213.826
234.932
255.865
273.553
288.795
301.789
312.848
322.157
330.618
339.082
348.243
221.115
216.584
208.11
197.301
189.163
184.882
185.42
192.106
203.113
218.926
238.898
259.067
276.025
291.325
304.724
315.932
326.416
338.004
348.984
353.146
232.806
228.822
221.157
211.27
203.872
199.073
198.785
203.807
212.876
226.715
245.179
264.135
280.34
294.856
308.055
320.14
329.978
336.812
344.676
351.047
246.763
243.318
236.548
227.858
220.736
215.46
213.856
217.068
224.204
236.158
253.072
269.966
284.186
297.446
310.101
322.16
332.24
336.935
334.157
342.756
263.868
260.198
253.687
245.755
238.559
233.139
230.33
231.712
236.916
246.98
261.627
275.74
287.973
299.325
310.303
321.72
333.491
345.517
350.819
339.056
284.083
280.134
273.237
264.862
257.648
251.424
247.771
247.712
251.054
258.892
270.768
281.609
290.467
299.001
309.028
320.899
333.431
343.409
350.017
341.538
304.018
301.097
294.609
285.798
277.802
270.509
265.776
264.346
265.905
271.384
279.371
285.883
291.606
298.599
307.968
319.753
332.991
344.32
333.839
335.635
322.83
320.289
314.744
307.197
299.105
291.31
285.17
281.92
281.375
283.763
287.757
290.758
293.675
297.997
304.79
313.508
323.846
340.561
327.569
328.903
342.56
339.88
334.573
327.284
320.078
312.549
305.637
300.493
297.189
296.107
296.011
294.848
293.884
294.539
297.503
303.481
311.766
318.878
319.453
319.451
360.032
358.477
354.274
348.223
340.837
333.135
325.45
318.486
312.367
307.246
302.709
297.701
292.893
288.403
285.85
289.334
298.362
300.631
307.1
307.855
375.409
374.23
370.937
365.869
359.709
352.414
343.958
334.859
325.48
316.493
308.068
299.003
289.534
280.011
271.685
270.937
281.349
287.423
293.509
295.783
389.114
388.207
385.442
381.071
375.585
368.805
359.943
348.935
336.813
324.259
311.876
299.486
286.149
271.292
257.296
253.448
263.277
274.297
280.851
284.294
400.35
399.927
397.601
393.651
388.313
381.513
372.37
360.288
346.088
331.111
315.992
300.647
283.521
264.765
247.971
242.279
249.481
263.005
270.338
274.485
409.203
408.875
407.064
403.391
398.069
390.937
381.432
368.683
353.471
337.343
320.2
302.27
282.712
261.472
242.941
236.533
241.14
255.898
263.452
267.663
416.151
415.982
414.294
410.795
405.45
397.972
388.073
375.119
359.432
342.29
324.357
305.342
284.163
261.345
242.531
238.48
246.822
255.161
261.156
264.481
421.574
421.703
420.123
416.643
411.138
403.468
393.371
380.123
364.375
347.056
328.443
308.178
286.919
265.616
248.441
243.459
249.972
256.951
261.322
264.021
425.52
425.818
424.437
421.187
415.784
407.841
397.652
384.514
368.775
351.156
332.503
312.504
291.229
271.253
257.227
252.604
257.571
261.637
264.01
265.745
428.746
429.125
427.811
424.706
419.384
411.57
401.467
388.374
372.812
355.552
336.999
317.17
296.78
278.126
266.599
262.852
266.417
266.572
266.46
267.575
431.241
431.72
430.542
427.427
422.388
414.849
404.75
392.228
377.006
359.783
341.375
322.159
302.549
284.99
274.331
269.623
268.544
267.611
267.758
268.791
433.158
433.547
432.692
429.507
424.613
417.513
407.891
395.638
380.735
364.052
345.777
326.458
308.121
292.391
281.881
278.179
276.878
275.485
270.888
271.155
434.663
434.841
434.2
430.926
426.21
419.619
410.188
398.543
384.209
367.643
350.065
331.882
314.037
298.739
288.591
283.744
279.499
271.121
273.248
273.792
435.702
435.733
435.228
432.039
427.433
420.931
412.14
400.846
387.014
371.455
354.415
336.582
319.461
304.902
294.054
286.519
281.435
278.903
277.195
277.067
436.236
436.093
435.645
432.898
428.311
421.879
413.423
402.812
389.799
374.684
358.459
341.562
324.861
310.3
300.076
293.417
287.177
282.02
275.528
279.514
436.218
435.829
435.361
433.431
428.838
422.438
414.402
404.32
392.106
378.001
362.32
346.026
330.372
316.867
306.093
298.084
289.41
282.196
282.73
288.778
435.666
435.246
435.248
433.919
429.468
423.044
415.149
405.573
394.111
380.813
366.265
351.213
336.175
322.699
312.363
304.679
299.591
299.578
298.816
296.962
434.723
434.739
435.277
434.183
429.857
423.645
415.911
406.723
396.126
383.824
370.167
356.099
342.284
329.528
319.074
311.76
306.132
299.61
292.394
297.848
434.153
435.176
434.867
433.186
429.907
424.237
416.801
408.075
398.001
386.839
374.47
361.362
348.154
335.86
325.847
317.032
306.271
299.511
298.949
306.466
433.779
435.242
433.586
432.193
429.557
424.494
417.631
409.369
400.197
389.975
378.757
366.502
354.251
342.078
330.157
320.936
313.224
308.145
312.999
319.494
432.421
432.513
432.27
430.781
428.23
423.953
418.168
410.918
402.507
393.348
383.125
371.67
359.471
347.555
335.843
324.748
318.45
317.328
317.282
326.149
430.629
430.4
431.269
428.938
426.584
423.426
418.647
412.526
405.254
396.783
387.349
376.7
365.208
352.781
340.759
330.137
318.901
311.683
308.943
299.213
429.479
429.286
429.766
427.677
425.58
422.958
419.292
414.429
408.253
400.765
391.938
381.815
370.778
359.014
345.288
331.267
316.711
299.973
284.217
285.892
427.957
427.196
426.549
425.522
423.655
421.829
419.668
416.295
411.401
404.856
397.058
387.741
376.757
364.159
349.931
332.737
311.337
290.155
262.97
217.852
425.173
424.048
422.616
421.296
420.179
419.623
419.197
417.601
414.474
409.491
402.651
393.824
383.182
370.014
353.256
335.228
310.089
273.359
237.25
136.144
422.052
420.713
418.534
417.446
417.387
417.875
418.561
418.822
417.464
414.381
409.158
400.866
389.512
376.984
359.543
336.283
314.257
269.981
214.979
139.803
419.804
418.086
415.757
414.907
415.533
417.275
418.984
420.708
421.665
419.844
415.811
409.313
397.78
383.163
368.088
342.413
317.833
281.051
225.794
175.71
419.173
417.318
415.083
414.9
416.076
418.219
420.513
423.075
426.569
426.015
423.274
416.316
408.06
390.696
374.834
353.504
326.543
297.713
258.664
220.193
420.403
418.321
415.95
415.803
417.446
420.027
422.679
426.227
432.977
428.102
433.434
421.359
416.624
399.509
381.616
366.853
344.543
318.137
285.93
252.135
423.126
421.317
419.748
419.642
420.897
422.882
425.546
427.969
437.827
428.991
438.874
422.161
421.906
406.487
391.64
380.457
361.802
337.602
307.227
274.787
425.945
424.175
422.781
422.367
423.178
425.108
426.306
430.643
439.289
431.662
438.08
416.766
416.191
409.945
403.051
393.442
374.102
349.761
321.377
291.385
429.119
427.44
425.999
425.572
425.464
429.163
427.359
429.391
423.538
428.148
418.405
418.921
423.763
420.952
413.047
402.004
381.896
356.86
331.606
304.579
431.212
429.755
428.247
427.855
426.456
427.019
425.471
436.595
410.64
429.438
421.226
443.307
436.515
424.961
413.85
403.933
385.43
361.606
338.807
312.795
432.788
431.242
429.638
429.401
430.89
433.973
427.326
444.404
435.293
457.661
444.343
456.204
438.121
424.998
413.88
403.156
386.045
364.604
341.566
315.563
-14.7701
10.7067
-23.7164
39.5092
-29.2841
5.1516
1.90259
-0.786942
-4.35069
1.05248
0.851894
-4.78952
-14.7893
-30.4572
-51.0201
-77.003
-104.998
-132.852
-158.19
-174.562
-180.451
-180.102
-171.553
-155.415
-135.31
-111.209
-83.7722
-54.6638
-23.5716
9.65491
43.0223
69.3878
94.7574
119.459
137.083
153.22
164.701
172.297
177.21
179.662
180.451
179.94
178.515
175.963
172.089
168.575
166.603
166.321
167.369
167.841
167.401
166.178
163.049
157.969
149.753
137.199
119.914
97.7409
70.7991
44.6878
20.059
1.85968
-6.86613
-6.68836
0.983439
17.3526
41.5005
62.508
82.8644
98.3353
108.403
111.654
108.579
100.418
87.2937
71.8492
55.1829
38.5321
22.6962
7.68517
27.5282
-31.7251
14.9165