/*--------------------------------*- C++ -*----------------------------------*\
| =========                 |                                                 |
| \\      /  F ield         | OpenFOAM: The Open Source CFD Toolbox           |
|  \\    /   O peration     | Version:  2306                                  |
|   \\  /    A nd           | Website:  www.openfoam.com                      |
|    \\/     M anipulation  |                                                 |
\*---------------------------------------------------------------------------*/
FoamFile
{
    version     2.0;
    format      ascii;
    arch        "LSB;label=32;scalar=64";
    class       surfaceScalarField;
    location    "0.5";
    object      phi;
}
// * * * * * * * * * * * * * * * * * * * * * * * * * * * * * * * * * * * * * //

dimensions      [0 3 -1 0 0 0 0];

oriented        oriented;

internalField   nonuniform List<scalar> 
8520
(
0.00992784
7.21554e-05
0.00978962
0.000138226
0.00962952
0.0001601
0.00946826
0.000161261
0.00930945
0.000158812
0.00914914
0.000160302
0.00898637
0.000162769
0.00882094
0.00016543
0.0086537
0.000167249
0.0084856
0.000168097
0.00831789
0.000167706
0.00815106
0.000166836
0.00798557
0.00016549
0.00782133
0.000164241
0.0076585
0.000162821
0.0074971
0.000161407
0.00733716
0.000159938
0.00717886
0.000158304
0.00702217
0.000156689
0.00686733
0.000154841
0.00671428
0.000153046
0.00656325
0.000151031
0.00641415
0.000149099
0.00626719
0.000146956
0.0061223
0.000144889
0.00597958
0.000142727
0.00583908
0.000140496
0.00570069
0.000138397
0.00556467
0.00013601
0.00543067
0.000134009
0.00529913
0.000131533
0.0051695
0.000129631
0.00504223
0.000127274
0.0049167
0.000125525
0.00479328
0.000123417
0.00467143
0.000121858
0.00455126
0.000120165
0.00443235
0.000118914
0.00431455
0.000117794
0.00419748
0.000117076
0.00408087
0.000116607
0.00396421
0.000116658
0.0038473
0.000116914
0.00372927
0.000118028
0.00361007
0.000119198
0.00348844
0.000121637
0.0033644
0.000124033
0.00323638
0.000128021
0.00310439
0.000131989
0.00296665
0.000137747
0.00282305
0.000143599
0.00267166
0.000151387
0.00251232
0.000159337
0.00234295
0.000169372
0.00216349
0.000179466
0.00197172
0.000191767
0.00176797
0.000203753
0.00155009
0.000217879
0.00131912
0.000230969
0.00107347
0.000245644
0.000815618
0.000257854
0.000545589
0.000270029
0.000271055
0.000274535
3.18233e-06
0.000267872
-0.000239766
0.000242948
-0.000447789
0.000208024
-0.000594912
0.000147122
-0.000666655
7.17433e-05
-0.000641286
-2.53686e-05
-0.000514461
-0.000126825
-0.000280026
-0.000234435
9.03609e-07
-0.00028093
0.000238771
-0.000237867
0.000338928
-0.000100157
4.51711e-05
0.000293757
-0.000413965
0.000459136
-0.000251314
-0.000162651
0.00014884
-0.000400154
0.000201866
-5.30263e-05
0.000153686
4.81808e-05
0.0100357
3.64752e-05
0.0100798
9.40689e-05
0.0101108
0.000129136
0.0101272
0.000144854
0.0101357
0.000150282
0.0101431
0.000152963
0.0101493
0.000156518
0.0101532
0.000161586
0.0101536
0.000166778
0.0101502
0.000171557
0.010143
0.000174862
0.0101323
0.000177536
0.0101189
0.000178943
0.0101027
0.000180397
0.0100844
0.000181161
0.0100637
0.000182082
0.0100409
0.000182765
0.0100159
0.000183263
0.00998877
0.000183835
0.00995974
0.000183872
0.00992851
0.000184275
0.00989568
0.000183867
0.00986062
0.000184153
0.00982422
0.00018336
0.0097856
0.000183507
0.00974574
0.000182586
0.00970381
0.000182426
0.00966056
0.000181649
0.00961549
0.000181081
0.00956893
0.000180567
0.00952069
0.000179771
0.00947085
0.000179471
0.00941936
0.000178766
0.00936623
0.000178658
0.00931126
0.000178384
0.00925467
0.000178445
0.00919586
0.000178974
0.00913552
0.000179263
0.00907237
0.000180938
0.00900763
0.000181814
0.00893933
0.00018491
0.00886928
0.000186706
0.00879499
0.000191205
0.00871836
0.00019466
0.00863686
0.000200695
0.00855196
0.000206537
0.00846157
0.00021443
0.00836632
0.00022327
0.00826473
0.000233571
0.00815657
0.000245915
0.00804084
0.000259321
0.00791662
0.000275611
0.00778306
0.000292899
0.007639
0.000313428
0.00748319
0.000335276
0.0073148
0.000360165
0.00713191
0.000386643
0.00693406
0.000415722
0.0067193
0.000445727
0.00648742
0.000477527
0.00623726
0.000508015
0.0059695
0.000537796
0.00568232
0.000561711
0.00537308
0.000577107
0.00504402
0.000572011
0.00468649
0.000565558
0.00428658
0.000547026
0.00383536
0.000522966
0.00331057
0.000499421
0.00269038
0.000493362
0.00192738
0.000528568
0.00105918
0.000587273
0.000217039
0.000604272
-0.000343022
0.000459904
-0.000473265
0.000423999
-0.000281438
0.000267309
-0.000287091
-0.000156998
-0.000339144
-0.000348101
-0.000243955
-0.000148215
0.000108767
-0.000199037
0.0100141
2.23338e-05
0.0100441
6.41537e-05
0.0100777
9.54555e-05
0.0101073
0.00011525
0.0101313
0.000126312
0.0101522
0.000132071
0.010173
0.000135736
0.010195
0.000139591
0.0102179
0.000143854
0.0102408
0.000148687
0.0102631
0.000152527
0.0102842
0.000156442
0.0103045
0.000158662
0.0103236
0.000161279
0.0103423
0.000162471
0.0103601
0.000164275
0.0103775
0.000165352
0.0103941
0.000166646
0.0104101
0.000167859
0.0104253
0.000168666
0.0104396
0.00016999
0.0104532
0.000170274
0.0104656
0.000171767
0.0104774
0.0001715
0.0104877
0.0001732
0.0104977
0.00017264
0.0105058
0.000174273
0.0105136
0.000173925
0.0105196
0.000175092
0.0105247
0.000175454
0.0105284
0.000176012
0.0105306
0.000177296
0.0105319
0.000177429
0.010531
0.000179616
0.0105295
0.00017982
0.0105253
0.000182671
0.0105206
0.000183696
0.0105129
0.000186923
0.0105043
0.000189553
0.010493
0.000193178
0.0104801
0.000197815
0.0104645
0.00020227
0.0104466
0.000209055
0.0104262
0.000215088
0.0104026
0.000224256
0.0103765
0.000232635
0.0103463
0.000244649
0.0103135
0.000256101
0.0102755
0.000271615
0.0102345
0.000286868
0.0101873
0.000306551
0.0101363
0.000326612
0.0100784
0.000350799
0.0100149
0.000376919
0.00994425
0.000405907
0.00986591
0.0004385
0.00977934
0.000473211
0.00968406
0.000511009
0.00957777
0.000552011
0.00946267
0.000592635
0.00933313
0.000637551
0.00919308
0.000677848
0.00903507
0.000719715
0.0088584
0.000753779
0.00864783
0.000782579
0.00840413
0.000809261
0.00811621
0.00083495
0.00777952
0.000859648
0.00738721
0.000891734
0.00694444
0.000936136
0.00646781
0.0010052
0.00597769
0.00107739
0.00542628
0.00115569
0.00470388
0.0011823
0.0039423
0.00118558
0.00306742
0.00114219
0.00188603
0.0010244
0.000586044
0.00095188
-0.000217349
0.000655177
0.000366374
-0.000474956
0.0100069
1.54108e-05
0.0100268
4.43261e-05
0.0100518
7.03844e-05
0.010077
9.00829e-05
0.0101003
0.000103045
0.0101223
0.000110045
0.010143
0.000114974
0.0101642
0.000118391
0.0101863
0.000121803
0.0102095
0.000125457
0.0102331
0.000128902
0.0102569
0.000132693
0.0102805
0.000135026
0.0103037
0.000138093
0.0103271
0.000139122
0.0103498
0.000141496
0.0103731
0.000142057
0.0103959
0.000143937
0.0104191
0.000144625
0.0104417
0.000146044
0.0104647
0.000147029
0.010487
0.000147958
0.0105095
0.000149279
0.0105313
0.000149657
0.0105531
0.000151451
0.0105744
0.000151331
0.0105951
0.000153536
0.0106158
0.000153268
0.0106353
0.00015555
0.010655
0.000155767
0.0106733
0.000157709
0.0106916
0.000159007
0.0107086
0.000160371
0.0107251
0.000163163
0.0107409
0.000164063
0.0107551
0.000168386
0.0107693
0.000169536
0.0107814
0.000174865
0.0107933
0.000177583
0.0108033
0.000183209
0.0108126
0.00018856
0.0108203
0.000194534
0.0108265
0.000202824
0.0108316
0.000210027
0.0108345
0.000221296
0.0108365
0.000230645
0.0108359
0.000245274
0.0108343
0.000257702
0.0108299
0.000276019
0.0108242
0.000292608
0.0108153
0.000315394
0.0108055
0.000336389
0.010791
0.000365349
0.010777
0.000390926
0.0107566
0.000426272
0.0107362
0.0004589
0.0107113
0.00049815
0.0106819
0.00054044
0.0106516
0.000582267
0.0106121
0.000632125
0.0105718
0.000677863
0.0105193
0.000730327
0.0104605
0.000778561
0.0103817
0.000832512
0.0102851
0.00087924
0.0101575
0.000936803
0.0100086
0.000983849
0.00981909
0.00104919
0.00960175
0.00110907
0.00934517
0.00119272
0.00907243
0.00127793
0.00876043
0.00138939
0.00841065
0.00150547
0.00796732
0.00162562
0.00745897
0.00169393
0.00685158
0.00174959
0.0061513
0.00172468
0.00538555
0.00171763
0.00429289
0.00174783
0.00170587
0.0029534
0.0100043
1.10727e-05
0.0100166
3.20703e-05
0.010035
5.19931e-05
0.0100563
6.88038e-05
0.010078
8.13188e-05
0.0100989
8.91757e-05
0.0101192
9.46209e-05
0.0101396
9.79724e-05
0.0101606
0.00010079
0.0101825
0.000103615
0.0102051
0.000106323
0.010228
0.000109746
0.0102515
0.000111558
0.0102746
0.000115013
0.0102982
0.00011544
0.0103211
0.000118666
0.0103449
0.000118203
0.0103677
0.000121123
0.0103918
0.00012057
0.0104147
0.000123121
0.0104388
0.000122949
0.0104618
0.00012499
0.0104856
0.000125421
0.0105086
0.000126719
0.0105319
0.000128129
0.0105548
0.000128391
0.0105773
0.000131059
0.0106002
0.000130334
0.0106217
0.00013413
0.0106444
0.000133039
0.0106647
0.000137408
0.0106869
0.00013677
0.010706
0.000141254
0.0107275
0.000141724
0.0107454
0.000146098
0.0107656
0.000148254
0.0107827
0.000152428
0.0108008
0.000156708
0.0108173
0.000161116
0.0108333
0.000167201
0.0108487
0.000173183
0.0108629
0.000180361
0.0108766
0.000189094
0.010889
0.00019767
0.010901
0.000209261
0.0109114
0.000220273
0.0109214
0.000235187
0.0109302
0.000248934
0.010938
0.000268232
0.010945
0.000285625
0.0109515
0.000308917
0.0109555
0.000332383
0.0109616
0.000359205
0.0109631
0.000389389
0.0109676
0.000421799
0.0109689
0.000457639
0.0109707
0.000496378
0.010971
0.000540049
0.0109719
0.000581435
0.0109677
0.000636324
0.0109667
0.000678836
0.0109549
0.000742112
0.0109428
0.000790648
0.0109179
0.000857415
0.0108834
0.000913734
0.0108335
0.000986779
0.010768
0.00104934
0.0106804
0.00113681
0.0105755
0.00121394
0.0104466
0.00132165
0.0102991
0.00142534
0.0101253
0.00156324
0.00993233
0.00169844
0.00971167
0.00184629
0.00943104
0.00197456
0.0090879
0.00209272
0.00862767
0.00218491
0.00803773
0.00230757
0.00736815
0.00241741
0.00250973
0.00656429
0.0100031
7.95344e-06
0.0100118
2.34279e-05
0.0100257
3.80874e-05
0.0100431
5.1401e-05
0.0100626
6.18363e-05
0.0100823
6.93978e-05
0.0101024
7.45027e-05
0.0101224
7.80148e-05
0.0101427
8.0468e-05
0.0101637
8.26762e-05
0.0101853
8.46998e-05
0.0102077
8.73175e-05
0.0102303
8.89612e-05
0.0102534
9.19396e-05
0.0102764
9.24074e-05
0.0102996
9.55274e-05
0.0103228
9.49386e-05
0.010346
9.79675e-05
0.0103695
9.70896e-05
0.0103927
9.98786e-05
0.0104163
9.93309e-05
0.0104396
0.000101758
0.0104632
0.000101783
0.0104862
0.000103686
0.0105097
0.000104641
0.0105325
0.000105618
0.0105556
0.000107966
0.0105781
0.000107792
0.0106005
0.000111716
0.0106228
0.00011076
0.0106444
0.000115855
0.0106662
0.000114899
0.0106868
0.000120663
0.0107081
0.000120467
0.0107277
0.000126512
0.010748
0.000127913
0.0107668
0.000133677
0.0107856
0.000137856
0.010804
0.00014272
0.0108207
0.000150486
0.010839
0.000154945
0.0108536
0.000165722
0.010871
0.000171665
0.0108843
0.00018438
0.0109004
0.000193194
0.0109123
0.000208313
0.0109275
0.000220005
0.0109379
0.000238605
0.0109521
0.000253966
0.0109619
0.000275832
0.0109743
0.000296573
0.0109847
0.00032195
0.0109955
0.000348415
0.0110062
0.000378649
0.0110166
0.000411468
0.0110284
0.000445795
0.0110368
0.000487936
0.0110525
0.000524428
0.011057
0.000576904
0.011075
0.000618297
0.0110774
0.00067648
0.0110899
0.000729568
0.0110904
0.000790174
0.0110929
0.000854946
0.0110831
0.000923462
0.0110727
0.000997254
0.0110444
0.00107757
0.0110116
0.00116967
0.0109631
0.00126245
0.0109018
0.00138289
0.0108312
0.00149591
0.010743
0.00165146
0.0106594
0.00178204
0.010532
0.00197366
0.0104088
0.00209782
0.0101811
0.00232044
0.00994386
0.00242212
0.00957834
0.00267309
0.00925117
0.00274458
0.00297979
0.00878111
0.0100024
5.51099e-06
0.0100093
1.65613e-05
0.0100204
2.69604e-05
0.0100353
3.65412e-05
0.0100524
4.47425e-05
0.0100711
5.06625e-05
0.0100903
5.53412e-05
0.0101102
5.8054e-05
0.01013
6.07345e-05
0.0101508
6.18167e-05
0.0101715
6.40599e-05
0.0101938
6.49846e-05
0.0102154
6.73921e-05
0.0102387
6.86355e-05
0.0102608
7.02882e-05
0.0102845
7.18499e-05
0.010307
7.24313e-05
0.0103307
7.42951e-05
0.0103536
7.41898e-05
0.0103771
7.63702e-05
0.0104004
7.59829e-05
0.0104236
7.86062e-05
0.0104474
7.79928e-05
0.0104699
8.11079e-05
0.010494
8.05528e-05
0.010516
8.36111e-05
0.0105401
8.39033e-05
0.0105616
8.62462e-05
0.0105853
8.80111e-05
0.0106065
8.96527e-05
0.0106296
9.27118e-05
0.0106502
9.42676e-05
0.0106725
9.83631e-05
0.0106928
0.00010015
0.0107138
0.000105545
0.0107341
0.000107648
0.0107534
0.000114376
0.0107735
0.000117762
0.0107914
0.000124809
0.0108106
0.000131294
0.0108279
0.000137641
0.0108453
0.00014829
0.0108625
0.00015444
0.0108782
0.000168769
0.0108949
0.000176446
0.0109095
0.000193695
0.0109251
0.000204403
0.0109394
0.000224295
0.0109538
0.00023959
0.0109683
0.000261341
0.0109813
0.000283613
0.010997
0.000306179
0.0110082
0.000337194
0.011026
0.000360907
0.0110364
0.00040108
0.0110553
0.000426831
0.0110666
0.000476722
0.0110858
0.000505136
0.0110974
0.000565352
0.0111181
0.000597619
0.0111264
0.000668187
0.0111481
0.000707818
0.0111531
0.000785176
0.0111689
0.000839199
0.0111711
0.000921241
0.0111762
0.000992166
0.0111681
0.00108564
0.0111602
0.00117754
0.011141
0.00128166
0.0111114
0.00141256
0.0110874
0.00151983
0.0110359
0.00170306
0.0110058
0.00181211
0.0109314
0.00204807
0.0108666
0.00216262
0.0107493
0.00243773
0.0106143
0.00255709
0.0104484
0.00283902
0.0102282
0.00296476
0.00322321
0.00998477
0.0100019
3.58202e-06
0.010008
1.04943e-05
0.0100174
1.75914e-05
0.0100306
2.3295e-05
0.0100459
2.94614e-05
0.0100636
3.29138e-05
0.0100819
3.70478e-05
0.0101017
3.83283e-05
0.0101212
4.11808e-05
0.0101419
4.11394e-05
0.0101623
4.36021e-05
0.0101841
4.32523e-05
0.0102056
4.59048e-05
0.0102282
4.59561e-05
0.0102506
4.79829e-05
0.0102737
4.87325e-05
0.0102966
4.94917e-05
0.0103197
5.11641e-05
0.0103431
5.07831e-05
0.0103661
5.33989e-05
0.01039
5.215e-05
0.0104126
5.59507e-05
0.0104369
5.37132e-05
0.010459
5.90378e-05
0.0104837
5.58167e-05
0.0105051
6.22207e-05
0.01053
5.90095e-05
0.0105509
6.53145e-05
0.0105754
6.35023e-05
0.0105962
6.88936e-05
0.0106199
6.89504e-05
0.0106405
7.37051e-05
0.0106634
7.54332e-05
0.0106837
7.98832e-05
0.0107055
8.36994e-05
0.0107258
8.74183e-05
0.010746
9.41472e-05
0.0107665
9.72463e-05
0.0107849
0.000106414
0.0108055
0.000110671
0.0108224
0.000120769
0.0108428
0.000127933
0.0108584
0.000138795
0.0108784
0.000148807
0.0108931
0.000161762
0.0109123
0.00017442
0.0109269
0.00018986
0.0109448
0.000206392
0.0109602
0.000224146
0.0109766
0.000245002
0.0109932
0.000266942
0.0110086
0.000290799
0.0110267
0.000319106
0.0110414
0.000346192
0.0110616
0.0003809
0.0110761
0.00041232
0.0110975
0.000455369
0.0111137
0.000488872
0.0111344
0.000544708
0.0111524
0.000579542
0.0111723
0.000648344
0.011191
0.000689101
0.0112087
0.000767452
0.0112252
0.000822717
0.0112421
0.000904308
0.0112481
0.000986161
0.0112644
0.00106935
0.0112597
0.0011823
0.0112662
0.00127512
0.0112559
0.0014229
0.0112475
0.00152824
0.0112327
0.00171787
0.0112054
0.00183933
0.0111834
0.00207011
0.0111265
0.00221954
0.0110887
0.00247553
0.0109908
0.00265493
0.0109169
0.00291292
0.0107693
0.00311241
0.00337554
0.010617
0.0100016
1.93491e-06
0.0100072
4.89549e-06
0.0100158
9.07303e-06
0.0100278
1.12393e-05
0.0100421
1.51359e-05
0.010059
1.60929e-05
0.0100768
1.91988e-05
0.0100961
1.90368e-05
0.0101157
2.16087e-05
0.0101361
2.06727e-05
0.0101567
2.30651e-05
0.010178
2.19511e-05
0.0101995
2.43671e-05
0.0102217
2.37843e-05
0.0102442
2.54676e-05
0.0102669
2.60299e-05
0.0102902
2.62469e-05
0.010313
2.83217e-05
0.0103367
2.70948e-05
0.0103595
3.05764e-05
0.0103835
2.81832e-05
0.0104062
3.325e-05
0.0104304
2.94876e-05
0.0104528
3.66841e-05
0.0104773
3.12581e-05
0.0104992
4.0376e-05
0.0105238
3.4327e-05
0.0105453
4.3821e-05
0.0105696
3.91937e-05
0.0105911
4.74715e-05
0.0106147
4.53524e-05
0.0106359
5.24243e-05
0.0106589
5.24882e-05
0.0106797
5.90479e-05
0.0107021
6.13641e-05
0.0107225
6.69984e-05
0.0107438
7.28431e-05
0.0107643
7.67488e-05
0.010784
8.66814e-05
0.0108048
8.98975e-05
0.0108232
0.000102369
0.0108436
0.000107531
0.0108616
0.000120828
0.0108811
0.000129304
0.0108988
0.000144069
0.0109179
0.000155261
0.010935
0.000172759
0.010954
0.000187363
0.0109715
0.000206643
0.0109896
0.000226977
0.0110087
0.000247848
0.0110263
0.000273139
0.0110458
0.000299666
0.0110656
0.000326402
0.0110847
0.000361761
0.0111056
0.00039138
0.011128
0.000433037
0.0111469
0.000469896
0.0111734
0.000518271
0.0111921
0.000560786
0.0112198
0.000620707
0.011239
0.000669824
0.0112672
0.000739339
0.0112862
0.000803689
0.011311
0.000879527
0.0113302
0.000966932
0.0113493
0.00105021
0.0113659
0.0011657
0.0113769
0.00126412
0.0113924
0.0014074
0.0113892
0.00153145
0.0114024
0.00170468
0.011382
0.00185978
0.011385
0.00206704
0.0113496
0.002255
0.0113312
0.00249392
0.0112756
0.0027105
0.0112165
0.00297206
0.0111221
0.00320678
0.00349073
0.0110069
0.0100016
3.78285e-07
0.010007
-5.05659e-07
0.010015
9.92032e-07
0.0100267
-3.87434e-07
0.0100404
1.42549e-06
0.0100568
-3.67708e-07
0.0100743
1.72399e-06
0.0100935
-1.08549e-07
0.0101129
2.12538e-06
0.0101334
2.22577e-07
0.0101539
2.53429e-06
0.0101752
7.07329e-07
0.0101966
2.91441e-06
0.0102187
1.67435e-06
0.0102412
3.02402e-06
0.0102639
3.29159e-06
0.0102871
3.05039e-06
0.0103101
5.34418e-06
0.0103337
3.50182e-06
0.0103568
7.40895e-06
0.0103804
4.59336e-06
0.0104039
9.78129e-06
0.0104273
6.0818e-06
0.0104509
1.30785e-05
0.0104744
7.79673e-06
0.0104976
1.71102e-05
0.0105213
1.0627e-05
0.0105441
2.10358e-05
0.0105677
1.56441e-05
0.0105904
2.47321e-05
0.0106132
2.25823e-05
0.0106361
2.94953e-05
0.010658
3.06028e-05
0.0106808
3.62503e-05
0.0107021
4.00751e-05
0.0107244
4.46471e-05
0.0107452
5.20749e-05
0.010767
5.49352e-05
0.0107874
6.63387e-05
0.0108084
6.88334e-05
0.0108287
8.21386e-05
0.0108488
8.7382e-05
0.010869
0.000100643
0.0108886
0.000109665
0.0109083
0.000124423
0.0109285
0.000135018
0.0109466
0.000154661
0.0109689
0.000165055
0.010985
0.000190608
0.0110095
0.000202427
0.0110251
0.000232253
0.0110502
0.000248089
0.0110679
0.000281914
0.0110926
0.000301676
0.0111125
0.000341865
0.0111388
0.00036514
0.0111601
0.000411726
0.0111872
0.000442775
0.0112128
0.000492689
0.011239
0.000534584
0.0112675
0.000592224
0.0112972
0.000640135
0.0113234
0.000713068
0.0113573
0.000769776
0.0113824
0.000854516
0.0114172
0.000932131
0.0114405
0.00102683
0.0114746
0.00113162
0.0114953
0.0012434
0.0115264
0.00137634
0.0115405
0.0015173
0.0115663
0.00167894
0.0115692
0.00185687
0.011583
0.00205324
0.0115724
0.00226557
0.0115635
0.00250285
0.0115326
0.00274146
0.0114844
0.00302016
0.0114062
0.003285
0.00357913
0.0113178
0.0100017
-1.32418e-06
0.0100069
-5.687e-06
0.0100151
-7.21273e-06
0.0100266
-1.19422e-05
0.0100405
-1.2393e-05
0.0100568
-1.6732e-05
0.0100744
-1.58625e-05
0.0100934
-1.90888e-05
0.0101131
-1.76229e-05
0.0101333
-1.99712e-05
0.0101542
-1.83695e-05
0.0101751
-2.0193e-05
0.010197
-1.89683e-05
0.0102188
-2.00936e-05
0.0102416
-1.98007e-05
0.0102641
-1.92403e-05
0.0102876
-2.03644e-05
0.0103106
-1.76618e-05
0.0103342
-2.01321e-05
0.0103576
-1.59832e-05
0.0103811
-1.8926e-05
0.010405
-1.40691e-05
0.0104282
-1.71421e-05
0.0104524
-1.11572e-05
0.0104755
-1.52372e-05
0.0104997
-7.1382e-06
0.0105227
-1.24114e-05
0.0105467
-2.94105e-06
0.0105696
-7.27571e-06
0.0105935
8.43791e-07
0.0106159
1.9218e-07
0.0106398
5.57488e-06
0.0106617
8.78255e-06
0.0106852
1.26811e-05
0.0107069
1.84376e-05
0.0107298
2.16655e-05
0.010751
3.09161e-05
0.0107742
3.17868e-05
0.0107938
4.66992e-05
0.0108179
4.47087e-05
0.0108361
6.39703e-05
0.0108604
6.31035e-05
0.0108786
8.23953e-05
0.0109017
8.65926e-05
0.0109211
0.000105033
0.0109431
0.000112972
0.0109631
0.00013464
0.0109853
0.000142867
0.0110059
0.000170058
0.0110283
0.000180037
0.0110503
0.000210224
0.011073
0.000225379
0.0110964
0.000258493
0.0111212
0.000276934
0.0111452
0.000317878
0.011173
0.000337297
0.0111979
0.000386871
0.011229
0.000411595
0.0112561
0.000465626
0.0112885
0.000502179
0.0113217
0.000558991
0.0113528
0.000609084
0.0113913
0.000674531
0.0114253
0.00073576
0.0114642
0.000815623
0.011503
0.000893392
0.0115419
0.000987866
0.0115836
0.00108994
0.0116227
0.00120435
0.0116626
0.00133638
0.0117018
0.00147808
0.0117358
0.00164503
0.0117678
0.00182482
0.0117908
0.00203025
0.0118069
0.00224945
0.0118098
0.00249997
0.011793
0.00275828
0.0117653
0.00304785
0.0116891
0.00336116
0.00365136
0.0116169
0.0100021
-3.42332e-06
0.0100071
-1.06978e-05
0.010016
-1.6148e-05
0.0100277
-2.36413e-05
0.0100424
-2.7065e-05
0.010059
-3.32917e-05
0.010077
-3.39115e-05
0.0100962
-3.82199e-05
0.010116
-3.74633e-05
0.0101364
-4.03491e-05
0.0101572
-3.9187e-05
0.0101784
-4.14257e-05
0.0102002
-4.07758e-05
0.0102224
-4.2239e-05
0.0102452
-4.25764e-05
0.0102679
-4.19971e-05
0.0102914
-4.38478e-05
0.0103145
-4.07404e-05
0.0103383
-4.39549e-05
0.0103617
-3.94359e-05
0.0103854
-4.25994e-05
0.0104096
-3.82117e-05
0.0104327
-4.02698e-05
0.0104576
-3.60693e-05
0.0104802
-3.78707e-05
0.0105054
-3.23393e-05
0.010528
-3.49864e-05
0.0105529
-2.78662e-05
0.0105756
-2.99807e-05
0.0106002
-2.3762e-05
0.0106227
-2.22771e-05
0.0106473
-1.90092e-05
0.0106693
-1.32218e-05
0.0106936
-1.1658e-05
0.0107156
-3.47686e-06
0.0107392
-1.92886e-06
0.0107613
8.81531e-06
0.0107843
8.76065e-06
0.0108058
2.51913e-05
0.0108295
2.1007e-05
0.0108495
4.39181e-05
0.010874
3.86939e-05
0.010894
6.23125e-05
0.0109167
6.39284e-05
0.0109399
8.18496e-05
0.0109593
9.35916e-05
0.0109853
0.000108556
0.0110044
0.000123834
0.01103
0.000144444
0.0110519
0.000158116
0.0110772
0.000184984
0.0111
0.000202572
0.0111288
0.000229669
0.0111509
0.000254807
0.0111831
0.000285725
0.0112078
0.000312611
0.0112416
0.000353001
0.0112695
0.000383677
0.0113067
0.00042847
0.0113382
0.000470649
0.011378
0.000519254
0.0114148
0.00057224
0.0114578
0.000631525
0.0114994
0.000694202
0.0115467
0.000768254
0.0115932
0.000846884
0.0116452
0.000935904
0.0116967
0.00103841
0.0117517
0.00114941
0.0118065
0.00128153
0.0118662
0.00141837
0.0119149
0.0015964
0.0119735
0.00176615
0.0120185
0.00198527
0.0120489
0.00221907
0.0120842
0.00246468
0.0120758
0.00276665
0.0120707
0.00305296
0.0120115
0.00342033
0.00373689
0.011926
0.0100024
-5.86784e-06
0.0100076
-1.58768e-05
0.0100178
-2.63255e-05
0.0100304
-3.61908e-05
0.0100464
-4.31426e-05
0.0100636
-5.04355e-05
0.0100824
-5.27346e-05
0.0101018
-5.76587e-05
0.0101218
-5.73861e-05
0.0101425
-6.10774e-05
0.0101631
-5.98248e-05
0.0101851
-6.33825e-05
0.0102067
-6.2367e-05
0.0102296
-6.52127e-05
0.0102521
-6.50436e-05
0.0102755
-6.54178e-05
0.0102987
-6.70461e-05
0.0103223
-6.4345e-05
0.0103459
-6.75598e-05
0.0103699
-6.33954e-05
0.0103934
-6.60965e-05
0.0104181
-6.29011e-05
0.0104411
-6.32762e-05
0.0104665
-6.15232e-05
0.0104891
-6.04522e-05
0.0105149
-5.80726e-05
0.0105374
-5.75737e-05
0.0105629
-5.33486e-05
0.0105857
-5.27995e-05
0.0106109
-4.88849e-05
0.0106338
-4.51565e-05
0.0106585
-4.37736e-05
0.0106817
-3.63597e-05
0.0107053
-3.52816e-05
0.0107298
-2.79931e-05
0.0107509
-2.30498e-05
0.0107777
-1.79601e-05
0.0107964
-9.93248e-06
0.0108243
-2.76663e-06
0.0108428
2.54532e-06
0.0108693
1.73786e-05
0.01089
1.79908e-05
0.0109139
3.84221e-05
0.0109368
4.10663e-05
0.0109601
5.85294e-05
0.0109825
7.12082e-05
0.0110082
8.28804e-05
0.0110293
0.000102701
0.0110568
0.000116932
0.0110792
0.000135698
0.0111068
0.000157433
0.0111319
0.000177413
0.0111613
0.000200338
0.0111872
0.000228877
0.0112206
0.000252371
0.0112488
0.000284422
0.0112836
0.000318194
0.0113181
0.000349143
0.0113542
0.000392341
0.0113938
0.000431087
0.011435
0.000478008
0.0114785
0.000528727
0.0115265
0.000583563
0.0115751
0.000645638
0.01163
0.000713372
0.011686
0.000790862
0.0117486
0.000873297
0.0118116
0.000975374
0.0118817
0.00107929
0.0119576
0.0012057
0.012025
0.00135094
0.012112
0.0015094
0.0121801
0.00169809
0.0122581
0.00190725
0.0123185
0.00215859
0.0123707
0.00241252
0.0124022
0.00273513
0.0123988
0.00305642
0.0123918
0.00342734
0.003848
0.0122806
0.0100028
-8.71076e-06
0.0100088
-2.18572e-05
0.0100208
-3.83457e-05
0.0100349
-5.0252e-05
0.010053
-6.12809e-05
0.0100708
-6.82337e-05
0.010091
-7.2886e-05
0.0101103
-7.69635e-05
0.0101308
-7.79121e-05
0.0101516
-8.18156e-05
0.0101725
-8.07817e-05
0.0101953
-8.61939e-05
0.0102168
-8.37995e-05
0.010241
-8.94323e-05
0.0102628
-8.6851e-05
0.0102875
-9.01067e-05
0.0103099
-8.94931e-05
0.0103345
-8.89406e-05
0.0103577
-9.07578e-05
0.0103823
-8.79399e-05
0.0104058
-8.96481e-05
0.0104307
-8.78189e-05
0.0104541
-8.66842e-05
0.0104796
-8.69604e-05
0.0105028
-8.3675e-05
0.0105284
-8.36292e-05
0.0105518
-8.10283e-05
0.010577
-7.85031e-05
0.010601
-7.67973e-05
0.0106255
-7.34467e-05
0.01065
-6.95816e-05
0.010674
-6.78612e-05
0.0106987
-6.10027e-05
0.0107222
-5.87493e-05
0.0107475
-5.33409e-05
0.0107692
-4.47673e-05
0.0107967
-4.54688e-05
0.0108155
-2.86906e-05
0.0108455
-3.27561e-05
0.0108627
-1.46899e-05
0.010892
-1.19573e-05
0.0109121
-2.08842e-06
0.0109373
1.32614e-05
0.010962
1.63673e-05
0.0109846
3.5903e-05
0.0110101
4.57238e-05
0.011035
5.79309e-05
0.0110592
7.85058e-05
0.011086
9.01314e-05
0.0111128
0.000108962
0.011138
0.000132218
0.0111699
0.000145527
0.0111949
0.000175297
0.0112296
0.000194172
0.0112588
0.000223175
0.011294
0.000249249
0.0113296
0.000282606
0.0113665
0.000312205
0.0114074
0.000351442
0.0114498
0.00038873
0.0114943
0.000433491
0.0115464
0.000476581
0.011592
0.000537948
0.0116586
0.000579124
0.0117074
0.000664552
0.0117857
0.000712515
0.0118444
0.000814652
0.011935
0.000884769
0.0120057
0.00100862
0.012108
0.00110339
0.0121927
0.00126622
0.012303
0.00139908
0.0124012
0.00159987
0.0125044
0.00180407
0.0126082
0.00205479
0.0126818
0.00233892
0.0127656
0.00265138
0.0127852
0.00303676
0.0127913
0.00342122
0.00390059
0.0127388
0.0100033
-1.19953e-05
0.0100116
-3.01793e-05
0.010026
-5.27377e-05
0.0100428
-6.70576e-05
0.0100631
-8.15303e-05
0.010082
-8.72043e-05
0.0101032
-9.40601e-05
0.0101224
-9.61833e-05
0.0101437
-9.92173e-05
0.0101645
-0.000102546
0.0101865
-0.000102779
0.0102097
-0.000109428
0.0102317
-0.000105864
0.0102566
-0.00011425
0.0102785
-0.000108798
0.0103038
-0.000115362
0.0103262
-0.000111892
0.0103513
-0.000114032
0.0103745
-0.000114004
0.0103995
-0.000112914
0.0104233
-0.000113426
0.0104485
-0.000113034
0.0104723
-0.000110534
0.0104978
-0.000112429
0.0105218
-0.000107705
0.0105471
-0.00010888
0.0105716
-0.00010557
0.0105966
-0.000103467
0.0106211
-0.000101354
0.0106467
-9.90364e-05
0.01067
-9.28778e-05
0.0106973
-9.51216e-05
0.0107186
-8.22832e-05
0.0107475
-8.76686e-05
0.0107674
-7.33064e-05
0.0107963
-7.36538e-05
0.0108176
-6.67305e-05
0.0108433
-5.44074e-05
0.0108688
-5.82083e-05
0.0108902
-3.61188e-05
0.0109184
-4.0132e-05
0.0109401
-2.38362e-05
0.0109652
-1.17727e-05
0.0109923
-1.07516e-05
0.011013
1.51478e-05
0.0110434
1.53176e-05
0.0110653
3.60668e-05
0.0110945
4.93157e-05
0.0111195
6.5075e-05
0.0111493
7.91689e-05
0.0111753
0.000106273
0.0112089
0.000111905
0.0112354
0.000148807
0.0112728
0.000156722
0.0113015
0.000194506
0.0113434
0.000207342
0.0113752
0.000250871
0.0114221
0.000265308
0.011459
0.000314482
0.0115106
0.000337159
0.0115557
0.00038838
0.0116118
0.000420514
0.0116672
0.00048253
0.0117323
0.000514003
0.0117963
0.000600583
0.0118718
0.000636989
0.0119575
0.000728973
0.012034
0.000808279
0.0121464
0.000896132
0.0122429
0.00100695
0.0123657
0.00114342
0.0124888
0.00127601
0.0126308
0.00145783
0.0127589
0.00167593
0.012908
0.0019057
0.0130408
0.00220615
0.0131346
0.00255756
0.0132501
0.00292125
0.0132591
0.00341228
0.00390011
0.0132595
0.0100042
-1.62328e-05
0.0100166
-4.25548e-05
0.0100353
-7.13827e-05
0.010056
-8.77575e-05
0.0100786
-0.000104167
0.0100984
-0.000106964
0.0101205
-0.000116201
0.0101393
-0.00011503
0.0101625
-0.000122353
0.0101829
-0.000122955
0.0102072
-0.000127122
0.0102297
-0.000131885
0.0102539
-0.000130095
0.0102778
-0.000138083
0.0103012
-0.000132286
0.0103257
-0.00013986
0.0103491
-0.000135287
0.0103739
-0.000138823
0.0103978
-0.000137907
0.0104228
-0.000137856
0.0104471
-0.000137808
0.0104722
-0.000138088
0.010497
-0.000135303
0.0105218
-0.000137256
0.0105473
-0.00013322
0.0105714
-0.000132929
0.0105978
-0.000132048
0.0106213
-0.000126943
0.0106479
-0.000127887
0.0106721
-0.000123276
0.010697
-0.000117754
0.0107234
-0.000121585
0.0107454
-0.000104257
0.0107748
-0.000117052
0.0107936
-9.2149e-05
0.0108253
-0.000105365
0.0108429
-8.42665e-05
0.0108737
-8.51894e-05
0.0108945
-7.90039e-05
0.0109199
-6.15503e-05
0.0109469
-6.71182e-05
0.0109671
-4.40686e-05
0.0109977
-4.23207e-05
0.0110173
-3.04463e-05
0.0110477
-1.52336e-05
0.0110697
-6.6928e-06
0.0111002
5.63314e-06
0.0111228
2.66914e-05
0.0111563
3.15496e-05
0.0111779
5.75434e-05
0.0112161
6.80917e-05
0.0112386
8.94734e-05
0.0112788
0.000108591
0.0113072
0.000128274
0.0113456
0.000156174
0.0113836
0.000169299
0.0114239
0.000210609
0.0114637
0.000225424
0.0115201
0.000258079
0.0115499
0.000307443
0.0116335
0.000304777
0.0116531
0.000400922
0.0117566
0.000378946
0.01179
0.000480638
0.0118872
0.000503402
0.0119599
0.000564251
0.0120525
0.000636374
0.012148
0.000712792
0.0122698
0.000774374
0.0123759
0.000900831
0.0125282
0.000991083
0.0126819
0.00112236
0.0128329
0.00130677
0.0130417
0.00146715
0.0132091
0.00173835
0.013414
0.00200121
0.013575
0.0023966
0.0137329
0.00276336
0.0138478
0.00329736
0.00388642
0.0138615
0.0100069
-2.31701e-05
0.0100271
-6.26755e-05
0.0100522
-9.64791e-05
0.0100773
-0.000112862
0.0101009
-0.000127832
0.0101226
-0.000128644
0.0101444
-0.000137966
0.0101648
-0.000135448
0.0101883
-0.000145817
0.0102105
-0.000145204
0.0102357
-0.000152336
0.0102587
-0.000154905
0.0102838
-0.000155154
0.0103068
-0.000161096
0.0103312
-0.000156707
0.0103546
-0.000163192
0.0103785
-0.000159239
0.0104028
-0.00016307
0.010426
-0.000161157
0.0104514
-0.000163287
0.0104738
-0.000160164
0.0104999
-0.000164218
0.010522
-0.0001574
0.0105477
-0.000162919
0.0105706
-0.000156121
0.0105949
-0.000157206
0.0106188
-0.000155969
0.0106421
-0.000150214
0.0106658
-0.000151642
0.0106896
-0.000147024
0.0107114
-0.000139573
0.0107372
-0.000147374
0.0107556
-0.000122708
0.0107847
-0.000146124
0.0107989
-0.000106341
0.0108316
-0.000138112
0.0108424
-9.50358e-05
0.0108767
-0.000119455