/*--------------------------------*- C++ -*----------------------------------*\
| =========                 |                                                 |
| \\      /  F ield         | OpenFOAM: The Open Source CFD Toolbox           |
|  \\    /   O peration     | Version:  2306                                  |
|   \\  /    A nd           | Website:  www.openfoam.com                      |
|    \\/     M anipulation  |                                                 |
\*---------------------------------------------------------------------------*/
FoamFile
{
    version     2.0;
    format      ascii;
    arch        "LSB;label=32;scalar=64";
    class       volVectorField;
    location    "0.5";
    object      U;
}
// * * * * * * * * * * * * * * * * * * * * * * * * * * * * * * * * * * * * * //

dimensions      [0 1 -1 0 0 0 0];

internalField   nonuniform List<vector> 
4400
(
(9.9018 0.0455075 0)
(9.80627 0.0987228 0)
(9.70012 0.12096 0)
(9.57015 0.125798 0)
(9.41821 0.124483 0)
(9.25215 0.123459 0)
(9.08065 0.124134 0)
(8.90817 0.125688 0)
(8.7373 0.126978 0)
(8.56776 0.127414 0)
(8.40016 0.126862 0)
(8.23329 0.125552 0)
(8.068 0.123755 0)
(7.90319 0.121751 0)
(7.74005 0.119656 0)
(7.57756 0.11754 0)
(7.41703 0.115436 0)
(7.2575 0.113248 0)
(7.10014 0.111085 0)
(6.94407 0.108753 0)
(6.79029 0.106477 0)
(6.63801 0.104016 0)
(6.48809 0.101651 0)
(6.33986 0.0991054 0)
(6.19408 0.0966657 0)
(6.05006 0.094123 0)
(5.90866 0.0916472 0)
(5.76891 0.0891298 0)
(5.63207 0.086656 0)
(5.49657 0.0842222 0)
(5.36437 0.0818371 0)
(5.23309 0.0794952 0)
(5.10545 0.0772622 0)
(4.97817 0.0750509 0)
(4.85471 0.0730313 0)
(4.73106 0.0709832 0)
(4.61121 0.0692731 0)
(4.49059 0.0675069 0)
(4.37347 0.0662253 0)
(4.25497 0.0648909 0)
(4.13942 0.0641797 0)
(4.02172 0.0634842 0)
(3.90633 0.0634678 0)
(3.78771 0.0635917 0)
(3.67072 0.0643646 0)
(3.54899 0.0654617 0)
(3.42812 0.0671481 0)
(3.30059 0.0693486 0)
(3.17292 0.0720962 0)
(3.03639 0.0754958 0)
(2.8984 0.0794636 0)
(2.74912 0.0841212 0)
(2.59673 0.0894337 0)
(2.43049 0.0952888 0)
(2.25924 0.101904 0)
(2.07152 0.108667 0)
(1.87702 0.116149 0)
(1.6636 0.123106 0)
(1.44228 0.130293 0)
(1.20031 0.135876 0)
(0.950782 0.140315 0)
(0.680282 0.140879 0)
(0.4042 0.133439 0)
(0.127886 0.102059 0)
(-0.122698 0.0459539 0)
(-0.368864 -0.0371608 0)
(-0.543094 -0.129798 0)
(-0.657304 -0.239247 0)
(-0.663536 -0.362051 0)
(-0.597604 -0.500086 0)
(-0.394837 -0.622184 0)
(-0.139944 -0.70236 0)
(0.142457 -0.560207 0)
(0.299251 -0.205244 0)
(0.393181 0.485522 0)
(-0.317566 0.908108 0)
(-0.45746 0.301619 0)
(-0.0251974 -0.0902099 0)
(0.295767 -0.106655 0)
(0.106844 -0.219516 0)
(10.0003 0.0611902 0)
(10.0317 0.137459 0)
(10.0698 0.173599 0)
(10.1048 0.18498 0)
(10.1328 0.186127 0)
(10.1498 0.186287 0)
(10.1592 0.188227 0)
(10.1607 0.192024 0)
(10.1594 0.195854 0)
(10.1535 0.199197 0)
(10.1471 0.201014 0)
(10.1364 0.20211 0)
(10.1256 0.202049 0)
(10.1103 0.201897 0)
(10.0945 0.201279 0)
(10.0743 0.200726 0)
(10.0534 0.200103 0)
(10.0287 0.199354 0)
(10.0032 0.19862 0)
(9.97443 0.197652 0)
(9.94467 0.196656 0)
(9.91219 0.195464 0)
(9.87852 0.194229 0)
(9.84243 0.192826 0)
(9.80527 0.191378 0)
(9.76552 0.189901 0)
(9.72527 0.188209 0)
(9.68176 0.186806 0)
(9.63874 0.184833 0)
(9.59145 0.183605 0)
(9.54575 0.181459 0)
(9.49478 0.180415 0)
(9.44623 0.178241 0)
(9.39172 0.177388 0)
(9.33988 0.175403 0)
(9.28202 0.174756 0)
(9.22626 0.173201 0)
(9.16506 0.172857 0)
(9.10471 0.171965 0)
(9.03971 0.172166 0)
(8.9742 0.172073 0)
(8.90428 0.173205 0)
(8.83316 0.174112 0)
(8.75671 0.176617 0)
(8.67928 0.178826 0)
(8.5944 0.183095 0)
(8.5094 0.18705 0)
(8.41394 0.193445 0)
(8.31934 0.199636 0)
(8.21091 0.208573 0)
(8.1039 0.217429 0)
(7.9796 0.229451 0)
(7.85662 0.24125 0)
(7.71289 0.25691 0)
(7.56969 0.271805 0)
(7.40212 0.291347 0)
(7.23382 0.309332 0)
(7.03728 0.332318 0)
(6.83838 0.352822 0)
(6.60756 0.377823 0)
(6.37205 0.398593 0)
(6.10186 0.422347 0)
(5.82409 0.437559 0)
(5.511 0.452247 0)
(5.19431 0.450384 0)
(4.8478 0.445092 0)
(4.47577 0.412647 0)
(4.06775 0.378389 0)
(3.60157 0.318784 0)
(3.0728 0.277372 0)
(2.39581 0.212923 0)
(1.56825 0.220573 0)
(0.526363 0.146941 0)
(-0.141647 -0.00682236 0)
(-0.527469 0.0398856 0)
(-0.4463 -0.0852957 0)
(-0.109786 -0.69329 0)
(-0.417058 -0.796992 0)
(-0.279805 -0.00473236 0)
(-0.234967 0.567774 0)
(10.0001 0.026797 0)
(10.0167 0.069723 0)
(10.0428 0.0999045 0)
(10.0747 0.117517 0)
(10.1083 0.126813 0)
(10.1393 0.131881 0)
(10.1672 0.135874 0)
(10.1909 0.140378 0)
(10.213 0.145291 0)
(10.2329 0.150458 0)
(10.2535 0.154783 0)
(10.273 0.158837 0)
(10.2935 0.16154 0)
(10.3128 0.164272 0)
(10.3326 0.165992 0)
(10.3509 0.167911 0)
(10.3691 0.169446 0)
(10.386 0.170851 0)
(10.4025 0.172434 0)
(10.4179 0.173313 0)
(10.4325 0.17495 0)
(10.4466 0.175235 0)
(10.4592 0.176948 0)
(10.4716 0.176697 0)
(10.4825 0.17836 0)
(10.4926 0.177952 0)
(10.502 0.179269 0)
(10.5093 0.179098 0)
(10.5171 0.179929 0)
(10.5213 0.180091 0)
(10.5274 0.180705 0)
(10.5286 0.181028 0)
(10.5321 0.181831 0)
(10.5308 0.182187 0)
(10.5307 0.183608 0)
(10.5274 0.183935 0)
(10.5226 0.186422 0)
(10.5177 0.186721 0)
(10.5075 0.190704 0)
(10.5006 0.191244 0)
(10.4847 0.196872 0)
(10.475 0.198363 0)
(10.4533 0.205567 0)
(10.4397 0.209067 0)
(10.4122 0.217759 0)
(10.3932 0.224301 0)
(10.3596 0.234718 0)
(10.3337 0.245096 0)
(10.2934 0.257898 0)
(10.259 0.272568 0)
(10.2108 0.288849 0)
(10.1663 0.307946 0)
(10.1083 0.32912 0)
(10.052 0.352559 0)
(9.98137 0.379808 0)
(9.91177 0.407825 0)
(9.82503 0.44104 0)
(9.73903 0.474297 0)
(9.63345 0.511882 0)
(9.5255 0.549574 0)
(9.39818 0.588998 0)
(9.2612 0.626414 0)
(9.10652 0.662851 0)
(8.93191 0.690789 0)
(8.73943 0.715121 0)
(8.51566 0.723326 0)
(8.26273 0.730135 0)
(7.96203 0.720409 0)
(7.6245 0.728706 0)
(7.222 0.736413 0)
(6.7735 0.795672 0)
(6.24447 0.868101 0)
(5.67862 0.988127 0)
(5.01908 0.972769 0)
(4.42198 0.892169 0)
(3.42054 0.70534 0)
(2.70843 0.457509 0)
(1.23619 0.222333 0)
(-0.144662 -0.251506 0)
(-0.337488 -0.401551 0)
(10.0001 0.0188981 0)
(10.01 0.0525836 0)
(10.0279 0.0807309 0)
(10.0508 0.101174 0)
(10.0782 0.114762 0)
(10.1049 0.123102 0)
(10.1321 0.128372 0)
(10.1558 0.132603 0)
(10.18 0.136196 0)
(10.2009 0.140455 0)
(10.2241 0.143761 0)
(10.2448 0.147806 0)
(10.2688 0.150023 0)
(10.2905 0.153087 0)
(10.3151 0.154283 0)
(10.3373 0.156329 0)
(10.3618 0.157268 0)
(10.384 0.158601 0)
(10.408 0.159686 0)
(10.4301 0.160543 0)
(10.4535 0.161802 0)
(10.4756 0.16223 0)
(10.4982 0.163742 0)
(10.5202 0.163607 0)
(10.542 0.165521 0)
(10.5637 0.164956 0)
(10.5844 0.167017 0)
(10.6055 0.166639 0)
(10.6253 0.168217 0)
(10.645 0.168873 0)
(10.6643 0.169435 0)
(10.6817 0.171682 0)
(10.7009 0.171165 0)
(10.7157 0.175085 0)
(10.734 0.174042 0)
(10.747 0.179198 0)
(10.7629 0.178663 0)
(10.7749 0.184454 0)
(10.7875 0.185468 0)
(10.7985 0.191719 0)
(10.8078 0.194865 0)
(10.8168 0.201946 0)
(10.8235 0.207654 0)
(10.8294 0.21596 0)
(10.8334 0.224917 0)
(10.8358 0.234722 0)
(10.8372 0.247758 0)
(10.8352 0.259574 0)
(10.834 0.277347 0)
(10.8269 0.292185 0)
(10.8228 0.314713 0)
(10.8097 0.334718 0)
(10.8036 0.360866 0)
(10.7812 0.388879 0)
(10.7758 0.417974 0)
(10.7408 0.45436 0)
(10.7352 0.488986 0)
(10.6894 0.529998 0)
(10.6769 0.573809 0)
(10.6232 0.615695 0)
(10.5981 0.666856 0)
(10.5314 0.709394 0)
(10.4918 0.759398 0)
(10.3994 0.802335 0)
(10.3375 0.842601 0)
(10.2048 0.884038 0)
(10.102 0.917385 0)
(9.91422 0.965135 0)
(9.75196 1.00949 0)
(9.4963 1.08232 0)
(9.25943 1.16083 0)
(8.9272 1.26875 0)
(8.6053 1.36303 0)
(8.17288 1.44723 0)
(7.73613 1.46394 0)
(7.16391 1.49913 0)
(6.53641 1.46332 0)
(5.80464 1.51015 0)
(4.85269 1.48608 0)
(3.72014 1.24397 0)
(10.0006 0.0134853 0)
(10.0063 0.0382913 0)
(10.0202 0.0606348 0)
(10.0363 0.0776881 0)
(10.0591 0.090711 0)
(10.0809 0.0987359 0)
(10.1064 0.104637 0)
(10.1282 0.108052 0)
(10.1527 0.111522 0)
(10.1728 0.114264 0)
(10.1966 0.117362 0)
(10.2165 0.120414 0)
(10.2408 0.122682 0)
(10.2616 0.125695 0)
(10.2864 0.126692 0)
(10.3082 0.129409 0)
(10.3332 0.129622 0)
(10.3555 0.131944 0)
(10.3802 0.132119 0)
(10.4028 0.133959 0)
(10.4269 0.134515 0)
(10.4501 0.13585 0)
(10.4735 0.136841 0)
(10.497 0.137676 0)
(10.52 0.139206 0)
(10.5431 0.139521 0)
(10.5661 0.141665 0)
(10.5882 0.141572 0)
(10.6113 0.144254 0)
(10.632 0.144178 0)
(10.6556 0.147089 0)
(10.6739 0.147649 0)
(10.6986 0.150377 0)
(10.7137 0.15234 0)
(10.7399 0.154518 0)
(10.7514 0.158394 0)
(10.7784 0.160417 0)
(10.7873 0.16565 0)
(10.8135 0.169265 0)
(10.8211 0.174387 0)
(10.8452 0.181514 0)
(10.8517 0.186087 0)
(10.8743 0.196992 0)
(10.8782 0.202441 0)
(10.9004 0.216306 0)
(10.901 0.224395 0)
(10.9227 0.240783 0)
(10.92 0.253128 0)
(10.9418 0.271763 0)
(10.9347 0.289583 0)
(10.9571 0.312087 0)
(10.947 0.333326 0)
(10.9665 0.364815 0)
(10.958 0.386406 0)
(10.9718 0.42834 0)
(10.9642 0.455032 0)
(10.977 0.499297 0)
(10.9634 0.541149 0)
(10.9795 0.580606 0)
(10.9595 0.637895 0)
(10.9704 0.676971 0)
(10.9511 0.739426 0)
(10.9454 0.783599 0)
(10.9219 0.846668 0)
(10.898 0.893527 0)
(10.8527 0.961169 0)
(10.807 1.01474 0)
(10.7267 1.09264 0)
(10.6497 1.1664 0)
(10.5219 1.2634 0)
(10.4107 1.36586 0)
(10.2167 1.48736 0)
(10.0766 1.6092 0)
(9.78685 1.73236 0)
(9.6152 1.84742 0)
(9.18509 1.93576 0)
(8.94419 2.03628 0)
(8.29789 2.06551 0)
(7.89265 2.14895 0)
(6.9288 2.10494 0)
(10.0005 0.00975177 0)
(10.0048 0.0279436 0)
(10.0155 0.0448679 0)
(10.0284 0.0586893 0)
(10.047 0.0699255 0)
(10.0661 0.0777535 0)
(10.0886 0.0833233 0)
(10.1097 0.0871596 0)
(10.1328 0.0899363 0)
(10.1534 0.09285 0)
(10.1765 0.0947364 0)
(10.1965 0.0981119 0)
(10.2205 0.0991326 0)
(10.2404 0.102992 0)
(10.2658 0.102791 0)
(10.2858 0.106745 0)
(10.3124 0.105638 0)
(10.3321 0.109358 0)
(10.3596 0.108042 0)
(10.3786 0.11139 0)
(10.407 0.110438 0)
(10.4251 0.113199 0)
(10.4542 0.113073 0)
(10.4714 0.114807 0)
(10.5013 0.11618 0)
(10.5171 0.116323 0)
(10.5479 0.11964 0)
(10.5623 0.118181 0)
(10.5936 0.123205 0)
(10.607 0.120996 0)
(10.638 0.12691 0)
(10.6505 0.124951 0)
(10.6813 0.131299 0)
(10.6921 0.13008 0)
(10.7233 0.136826 0)
(10.7318 0.136941 0)
(10.7636 0.143528 0)
(10.7697 0.146399 0)
(10.8013 0.151944 0)
(10.8061 0.158473 0)
(10.8359 0.163676 0)
(10.8408 0.173008 0)
(10.8676 0.179788 0)
(10.873 0.191211 0)
(10.8974 0.20055 0)
(10.9022 0.214285 0)
(10.9246 0.227679 0)
(10.9295 0.242495 0)
(10.9487 0.262474 0)
(10.9551 0.278988 0)
(10.9713 0.302957 0)
(10.978 0.328504 0)
(10.9931 0.349818 0)
(11.0003 0.389479 0)
(11.0123 0.410363 0)
(11.0246 0.45746 0)
(11.0298 0.487923 0)
(11.0475 0.53601 0)
(11.0515 0.576587 0)
(11.0637 0.631175 0)
(11.0759 0.674242 0)
(11.0754 0.738468 0)
(11.0909 0.787291 0)
(11.0824 0.85368 0)
(11.0903 0.91552 0)
(11.0658 0.988195 0)
(11.0739 1.05959 0)
(11.0083 1.15297 0)
(11.0268 1.23746 0)
(10.9027 1.35598 0)
(10.934 1.46489 0)
(10.7393 1.6081 0)
(10.7849 1.74321 0)
(10.5125 1.90151 0)
(10.5506 2.04767 0)
(10.2035 2.20515 0)
(10.1598 2.32725 0)
(9.73751 2.49679 0)
(9.50163 2.56702 0)
(9.02094 2.77983 0)
(9.99999 0.00680451 0)
(10.0045 0.020299 0)
(10.0124 0.0323836 0)
(10.0243 0.043335 0)
(10.0393 0.0520235 0)
(10.0569 0.059068 0)
(10.0768 0.0638135 0)
(10.097 0.0674822 0)
(10.1192 0.0700596 0)
(10.1392 0.0721429 0)
(10.1628 0.0742704 0)
(10.1816 0.076055 0)
(10.2071 0.0779452 0)
(10.2246 0.0800169 0)
(10.2525 0.0810214 0)
(10.2687 0.0834856 0)
(10.2993 0.0834625 0)
(10.3138 0.0860402 0)
(10.3469 0.0856308 0)
(10.3595 0.0880333 0)
(10.3945 0.0878257 0)
(10.4058 0.0899991 0)
(10.4413 0.0901047 0)
(10.4527 0.0921879 0)
(10.4875 0.0927577 0)
(10.4993 0.0944852 0)
(10.5333 0.0960217 0)
(10.5454 0.0969161 0)
(10.5785 0.100003 0)
(10.5909 0.0999533 0)
(10.6224 0.104591 0)
(10.6357 0.104182 0)
(10.6651 0.109793 0)
(10.6788 0.11013 0)
(10.7072 0.115824 0)
(10.7196 0.118195 0)
(10.7485 0.123177 0)
(10.7582 0.128735 0)
(10.7881 0.13255 0)
(10.7952 0.141985 0)
(10.8253 0.145106 0)
(10.831 0.157855 0)
(10.8594 0.16237 0)
(10.866 0.176786 0)
(10.8904 0.184579 0)
(10.9001 0.201376 0)
(10.9191 0.210886 0)
(10.9324 0.233617 0)
(10.9468 0.243655 0)
(10.9627 0.271549 0)
(10.9741 0.287985 0)
(10.9915 0.31429 0)
(11.0019 0.344611 0)
(11.0189 0.366629 0)
(11.031 0.410354 0)
(11.0466 0.432994 0)
(11.0603 0.486099 0)
(11.0769 0.511987 0)
(11.0887 0.575742 0)
(11.1077 0.603748 0)
(11.1208 0.676509 0)
(11.1294 0.715137 0)
(11.1591 0.786543 0)
(11.1402 0.845337 0)
(11.1903 0.918327 0)
(11.1426 0.992364 0)
(11.2063 1.0786 0)
(11.1228 1.1724 0)
(11.2051 1.27145 0)
(11.0756 1.39713 0)
(11.1683 1.51194 0)
(11.007 1.67676 0)
(11.0844 1.79751 0)
(10.9109 2.02012 0)
(10.9437 2.11429 0)
(10.7671 2.40131 0)
(10.7153 2.45811 0)
(10.5298 2.77861 0)
(10.346 2.84342 0)
(10.1358 3.12846 0)
(10 0.00458121 0)
(10.0038 0.0137311 0)
(10.0109 0.022306 0)
(10.0212 0.0296349 0)
(10.0351 0.0365287 0)
(10.0505 0.0410307 0)
(10.0697 0.0456451 0)
(10.0879 0.0475563 0)
(10.1106 0.0507622 0)
(10.1288 0.0511659 0)
(10.1541 0.0540694 0)
(10.1704 0.0539504 0)
(10.1987 0.0568921 0)
(10.2128 0.0568762 0)
(10.2442 0.0593312 0)
(10.2563 0.0597544 0)
(10.2909 0.0612371 0)
(10.301 0.0622521 0)
(10.3384 0.0628097 0)
(10.3465 0.0646063 0)
(10.3859 0.064298 0)
(10.3929 0.0671465 0)
(10.4327 0.0659711 0)
(10.4401 0.0699134 0)
(10.4784 0.0683771 0)
(10.4877 0.0725839 0)
(10.5233 0.0717846 0)
(10.5349 0.0753931 0)
(10.5679 0.0759507 0)
(10.5813 0.0791696 0)
(10.6117 0.0806225 0)
(10.627 0.0841944 0)
(10.6543 0.0865618 0)
(10.6717 0.0900035 0)
(10.6959 0.0947595 0)
(10.7145 0.0968781 0)
(10.7368 0.10497 0)
(10.7554 0.106477 0)
(10.7766 0.11638 0)
(10.7945 0.120205 0)
(10.815 0.12938 0)
(10.8317 0.138301 0)
(10.8523 0.145493 0)
(10.8666 0.160362 0)
(10.8886 0.166987 0)
(10.9002 0.185611 0)
(10.9229 0.196435 0)
(10.934 0.214266 0)
(10.9546 0.234274 0)
(10.9683 0.249718 0)
(10.9856 0.278567 0)
(11.0018 0.29587 0)
(11.0182 0.329907 0)
(11.0344 0.352392 0)
(11.0527 0.392812 0)
(11.0674 0.417577 0)
(11.09 0.46908 0)
(11.0994 0.495249 0)
(11.1327 0.556261 0)
(11.1294 0.588452 0)
(11.1782 0.657976 0)
(11.1587 0.696043 0)
(11.2245 0.777177 0)
(11.1823 0.825431 0)
(11.2701 0.91486 0)
(11.2007 0.981036 0)
(11.3008 1.0828 0)
(11.2158 1.17109 0)
(11.3116 1.28195 0)
(11.2153 1.41876 0)
(11.3033 1.51835 0)
(11.193 1.72463 0)
(11.2671 1.81844 0)
(11.1477 2.07105 0)
(11.1924 2.19249 0)
(11.0681 2.44923 0)
(11.0631 2.62019 0)
(10.9324 2.86534 0)
(10.8452 3.06951 0)
(10.7097 3.30922 0)
(9.99979 0.00279649 0)
(10.0035 0.00775847 0)
(10.01 0.0134042 0)
(10.0194 0.0171932 0)
(10.0326 0.0220494 0)
(10.0467 0.0241249 0)
(10.0654 0.027733 0)
(10.0824 0.0283889 0)
(10.1052 0.031112 0)
(10.1224 0.0308591 0)
(10.1483 0.0332844 0)
(10.1638 0.0327348 0)
(10.1929 0.035045 0)
(10.2061 0.0349398 0)
(10.2383 0.0364584 0)
(10.2496 0.0374705 0)
(10.2845 0.0375437 0)
(10.2944 0.0398726 0)
(10.3317 0.0387049 0)
(10.34 0.0421042 0)
(10.3793 0.0400452 0)
(10.3864 0.0446761 0)
(10.4261 0.0414183 0)
(10.434 0.0480621 0)
(10.4715 0.0431102 0)
(10.4827 0.0517565 0)
(10.5157 0.0460042 0)
(10.5313 0.0551248 0)
(10.5594 0.0507596 0)
(10.5793 0.0584662 0)
(10.6025 0.0569459 0)
(10.6267 0.0629596 0)
(10.6445 0.0639771 0)
(10.6734 0.069326 0)
(10.6856 0.072353 0)
(10.7183 0.0773521 0)
(10.7267 0.0830337 0)
(10.7608 0.0873364 0)
(10.7673 0.0960278 0)
(10.8017 0.100445 0)
(10.8068 0.111612 0)
(10.8411 0.116743 0)
(10.8454 0.13161 0)
(10.8787 0.136078 0)
(10.8839 0.156204 0)
(10.9142 0.161706 0)
(10.9225 0.182974 0)
(10.9486 0.196894 0)
(10.9606 0.213477 0)
(10.9836 0.23888 0)
(10.9974 0.254291 0)
(11.0203 0.284711 0)
(11.0352 0.306827 0)
(11.056 0.339539 0)
(11.0785 0.367212 0)
(11.0894 0.407071 0)
(11.1261 0.439679 0)
(11.1261 0.48228 0)
(11.173 0.530807 0)
(11.1677 0.568497 0)
(11.2218 0.635345 0)
(11.2099 0.676842 0)
(11.2724 0.752497 0)
(11.2526 0.812218 0)
(11.3227 0.886034 0)
(11.2903 0.9828 0)
(11.3713 1.04601 0)
(11.3225 1.18526 0)
(11.4066 1.25828 0)
(11.3496 1.42041 0)
(11.4238 1.53081 0)
(11.364 1.71001 0)
(11.417 1.85956 0)
(11.3601 2.06951 0)
(11.374 2.24351 0)
(11.3341 2.49316 0)
(11.2774 2.68689 0)
(11.2692 2.9627 0)
(11.1094 3.17446 0)
(11.1304 3.46171 0)
(9.99936 0.00118662 0)
(10.0035 0.00224728 0)
(10.0096 0.00498111 0)
(10.0185 0.00549221 0)
(10.0317 0.00812184 0)
(10.0445 0.00780267 0)
(10.0637 0.0102583 0)
(10.0796 0.00936789 0)
(10.1027 0.0117639 0)
(10.1194 0.0104106 0)
(10.1451 0.0128176 0)
(10.1611 0.0113497 0)
(10.1894 0.0136687 0)
(10.2038 0.012682 0)
(10.2344 0.0142824 0)
(10.2479 0.0145235 0)
(10.28 0.014722 0)
(10.2935 0.0167147 0)
(10.3263 0.0153126 0)
(10.34 0.0190677 0)
(10.3732 0.0161806 0)
(10.387 0.0218392 0)
(10.42 0.0173613 0)
(10.4351 0.0253076 0)
(10.4654 0.0191467 0)
(10.4846 0.0289686 0)
(10.5089 0.0223599 0)
(10.535 0.0324314 0)
(10.5515 0.0273403 0)
(10.585 0.0363365 0)
(10.5938 0.033434 0)
(10.6343 0.0417386 0)
(10.6353 0.0405659 0)
(10.6829 0.0485943 0)
(10.6764 0.0498749 0)
(10.7293 0.0563466 0)
(10.7184 0.0621963 0)
(10.7725 0.0656449 0)
(10.7611 0.0769938 0)
(10.8143 0.0785375 0)
(10.8021 0.0929161 0)
(10.8562 0.0972135 0)
(10.8415 0.109893 0)
(10.8967 0.121375 0)
(10.882 0.131458 0)
(10.9344 0.147964 0)
(10.924 0.161466 0)
(10.9705 0.177339 0)
(10.9674 0.198314 0)
(11.0055 0.214707 0)
(11.0132 0.2398 0)
(11.0402 0.261263 0)
(11.06 0.290528 0)
(11.0792 0.313307 0)
(11.1055 0.353979 0)
(11.1231 0.375616 0)
(11.1541 0.424133 0)
(11.168 0.456225 0)
(11.2078 0.503064 0)
(11.2171 0.550254 0)
(11.2628 0.601486 0)
(11.2709 0.658786 0)
(11.3233 0.719102 0)
(11.3237 0.789748 0)
(11.3878 0.86422 0)
(11.3784 0.943477 0)
(11.4508 1.04524 0)
(11.4328 1.13666 0)
(11.5082 1.26149 0)
(11.4871 1.38565 0)
(11.5496 1.52608 0)
(11.5378 1.69486 0)
(11.5692 1.8593 0)
(11.5732 2.06398 0)
(11.5588 2.27146 0)
(11.5791 2.50102 0)
(11.5012 2.74963 0)
(11.541 3.00707 0)
(11.3791 3.27171 0)
(11.4072 3.55652 0)
(9.99937 -0.000429819 0)
(10.0036 -0.00322255 0)
(10.0097 -0.003045 0)
(10.0186 -0.00626364 0)
(10.0315 -0.00526736 0)
(10.0447 -0.00853441 0)
(10.0635 -0.006833 0)
(10.08 -0.00961403 0)
(10.1022 -0.00752353 0)
(10.1203 -0.00999903 0)
(10.1443 -0.00770474 0)
(10.1625 -0.00998075 0)
(10.1882 -0.00779908 0)
(10.2057 -0.00938111 0)
(10.2329 -0.00823358 0)
(10.2502 -0.00797607 0)
(10.2781 -0.0086763 0)
(10.2964 -0.00601974 0)
(10.324 -0.0084038 0)
(10.3438 -0.00421881 0)
(10.3705 -0.00711394 0)
(10.3916 -0.0022966 0)
(10.4172 -0.00528996 0)
(10.4403 0.000776434 0)
(10.4626 -0.00362681 0)
(10.4903 0.00514315 0)
(10.5064 -0.00122129 0)
(10.5412 0.00954485 0)
(10.5496 0.00377492 0)
(10.5916 0.0130744 0)
(10.5929 0.0115171 0)
(10.6412 0.0171458 0)
(10.6355 0.0204324 0)
(10.6906 0.023683 0)
(10.677 0.0301155 0)
(10.7388 0.0325897 0)
(10.7196 0.0417564 0)
(10.7829 0.0438241 0)
(10.7654 0.0552497 0)
(10.8226 0.0589118 0)
(10.8126 0.070477 0)
(10.8616 0.0775988 0)
(10.8575 0.0901265 0)
(10.9022 0.0980417 0)
(10.9008 0.116175 0)
(10.9424 0.12176 0)
(10.9453 0.14689 0)
(10.9818 0.152118 0)
(10.9899 0.181962 0)
(11.0241 0.189268 0)
(11.033 0.223964 0)
(11.0697 0.233465 0)
(11.0788 0.273223 0)
(11.1142 0.287707 0)
(11.1321 0.329691 0)
(11.1585 0.35242 0)
(11.19 0.397679 0)
(11.2079 0.427554 0)
(11.2516 0.478874 0)
(11.2622 0.516031 0)
(11.3176 0.578844 0)
(11.3254 0.616097 0)
(11.3838 0.702284 0)
(11.3985 0.742182 0)
(11.4541 0.838284 0)
(11.4752 0.911958 0)
(11.5304 0.999263 0)
(11.5545 1.1173 0)
(11.6091 1.21515 0)
(11.6352 1.3569 0)
(11.6819 1.50118 0)
(11.715 1.65342 0)
(11.741 1.85045 0)
(11.7817 2.0396 0)
(11.7706 2.26393 0)
(11.8211 2.51765 0)
(11.7592 2.75843 0)
(11.7865 3.06213 0)
(11.7 3.33843 0)
(11.6376 3.64716 0)
(9.99891 -0.00231186 0)
(10.0046 -0.00844293 0)
(10.0095 -0.0116285 0)
(10.0202 -0.0178391 0)
(10.0319 -0.0193534 0)
(10.0473 -0.0246468 0)
(10.0648 -0.0245388 0)
(10.0835 -0.0282268 0)
(10.1041 -0.0274791 0)
(10.1244 -0.0298092 0)
(10.1464 -0.0291049 0)
(10.167 -0.0305168 0)
(10.1903 -0.0302238 0)
(10.2103 -0.0308226 0)
(10.2352 -0.0313025 0)
(10.255 -0.0304535 0)
(10.2807 -0.0319603 0)
(10.3017 -0.0293024 0)
(10.3264 -0.0318295 0)
(10.3497 -0.0278489 0)
(10.3728 -0.0307905 0)
(10.3981 -0.0259632 0)
(10.4199 -0.0290742 0)
(10.4467 -0.0231654 0)
(10.4664 -0.0269561 0)
(10.4963 -0.0194795 0)
(10.5116 -0.0237158 0)
(10.5469 -0.0155414 0)
(10.5565 -0.0183745 0)
(10.5963 -0.0115198 0)
(10.6025 -0.0111278 0)
(10.6442 -0.00618703 0)
(10.6484 -0.00295515 0)
(10.6924 0.0016291 0)
(10.6922 0.00646599 0)
(10.7413 0.0108964 0)
(10.7353 0.0196614 0)
(10.7879 0.0198147 0)
(10.781 0.0377082 0)
(10.8304 0.0304216 0)
(10.829 0.0569952 0)
(10.8714 0.0483474 0)
(10.8754 0.0742074 0)
(10.915 0.0744742 0)
(10.9188 0.0937932 0)
(10.9607 0.102961 0)
(10.9621 0.12254 0)
(11.0056 0.132102 0)
(11.0088 0.158276 0)
(11.0491 0.169279 0)
(11.0591 0.196244 0)
(11.0947 0.215826 0)
(11.1101 0.243167 0)
(11.1454 0.26471 0)
(11.1637 0.305107 0)
(11.1991 0.319926 0)
(11.224 0.375146 0)
(11.2572 0.391889 0)
(11.2886 0.45092 0)
(11.3237 0.484072 0)
(11.3595 0.535294 0)
(11.3958 0.598138 0)
(11.4397 0.64013 0)
(11.4774 0.724261 0)
(11.5257 0.785004 0)
(11.5696 0.866314 0)
(11.622 0.968025 0)
(11.6673 1.05111 0)
(11.7296 1.18291 0)
(11.7705 1.30441 0)
(11.838 1.44199 0)
(11.8853 1.62573 0)
(11.9319 1.78949 0)
(11.9906 2.01124 0)
(12.0212 2.23723 0)
(12.0429 2.4938 0)
(12.0803 2.77776 0)
(12.0302 3.07097 0)
(12.0523 3.42251 0)
(11.9192 3.706 0)
(9.99865 -0.004698 0)
(10.0051 -0.0135028 0)
(10.0103 -0.0212441 0)
(10.0219 -0.029727 0)
(10.0345 -0.0344331 0)
(10.051 -0.0412352 0)
(10.0695 -0.0426328 0)
(10.089 -0.0474632 0)
(10.1099 -0.0470521 0)
(10.131 -0.0506381 0)
(10.1525 -0.0495286 0)
(10.1742 -0.0525303 0)
(10.1964 -0.0515244 0)
(10.2178 -0.053648 0)
(10.2415 -0.053733 0)
(10.2628 -0.0534426 0)
(10.2875 -0.0555717 0)
(10.3098 -0.0521995 0)
(10.3337 -0.0561018 0)
(10.3579 -0.0511954 0)
(10.381 -0.0545853 0)
(10.406 -0.0506241 0)
(10.4294 -0.0516682 0)
(10.4538 -0.0491129 0)
(10.4775 -0.0489504 0)
(10.5027 -0.0453817 0)
(10.5243 -0.0463749 0)
(10.5527 -0.0404117 0)
(10.571 -0.0416778 0)
(10.6015 -0.0362113 0)
(10.6195 -0.0335073 0)
(10.6481 -0.0320764 0)
(10.6686 -0.023528 0)
(10.6952 -0.0252328 0)
(10.7142 -0.0134257 0)
(10.7464 -0.0149139 0)
(10.7552 -0.00195391 0)
(10.7995 -0.00262457 0)
(10.796 0.0128883 0)
(10.8495 0.0111297 0)
(10.8404 0.031138 0)
(10.8955 0.0283981 0)
(10.8873 0.0506279 0)
(10.9403 0.0526367 0)
(10.935 0.0699078 0)
(10.9848 0.0836355 0)
(10.9846 0.0942414 0)
(11.0282 0.115182 0)
(11.0372 0.129695 0)
(11.0735 0.147063 0)
(11.0896 0.172226 0)
(11.1252 0.189369 0)
(11.141 0.214586 0)
(11.1832 0.244238 0)
(11.196 0.264683 0)
(11.2446 0.304444 0)
(11.2589 0.32774 0)
(11.31 0.374893 0)
(11.3297 0.401818 0)
(11.383 0.454855 0)
(11.4097 0.499974 0)
(11.4623 0.540488 0)
(11.5037 0.620119 0)
(11.5515 0.655843 0)
(11.6063 0.746503 0)
(11.6603 0.818463 0)
(11.7165 0.894067 0)
(11.7872 1.01533 0)
(11.8403 1.10322 0)
(11.9247 1.24367 0)
(11.9874 1.38128 0)
(12.058 1.54961 0)
(12.15 1.72767 0)
(12.1897 1.94869 0)
(12.2921 2.18768 0)
(12.3097 2.44316 0)
(12.3804 2.77733 0)
(12.3659 3.06201 0)
(12.3752 3.47106 0)
(12.3268 3.82198 0)
(9.99843 -0.00740113 0)
(10.0061 -0.0190994 0)
(10.0113 -0.0321801 0)
(10.025 -0.0426349 0)
(10.0386 -0.0509672 0)
(10.0575 -0.0584725 0)
(10.0766 -0.0616252 0)
(10.0981 -0.0668199 0)
(10.1186 -0.0670622 0)
(10.1415 -0.0712907 0)
(10.1618 -0.0703927 0)
(10.1853 -0.0743493 0)
(10.2058 -0.0733319 0)
(10.2293 -0.0764772 0)
(10.2514 -0.0762327 0)
(10.2749 -0.0770184 0)
(10.298 -0.0784446 0)
(10.3225 -0.0763787 0)
(10.3447 -0.0791684 0)
(10.3711 -0.0757961 0)
(10.3925 -0.0778065 0)
(10.4193 -0.0754899 0)
(10.442 -0.0750177 0)
(10.4665 -0.0742788 0)
(10.4918 -0.0720856 0)
(10.5149 -0.0710934 0)
(10.5398 -0.0689918 0)
(10.5656 -0.0665516 0)
(10.5864 -0.0642181 0)
(10.6164 -0.0618307 0)
(10.6343 -0.0570591 0)
(10.665 -0.0558467 0)
(10.6838 -0.0493236 0)
(10.713 -0.0457884 0)
(10.7312 -0.0425928 0)
(10.7642 -0.0316107 0)
(10.7743 -0.0339545 0)
(10.8181 -0.0176559 0)
(10.8164 -0.018374 0)
(10.8695 -0.00631146 0)
(10.8628 0.00361319 0)
(10.9159 0.00739549 0)
(10.9129 0.0256642 0)
(10.9618 0.0300824 0)
(10.9608 0.0456259 0)
(11.0133 0.0595752 0)
(11.0056 0.0703848 0)
(11.0657 0.0901325 0)
(11.0574 0.103972 0)
(11.1121 0.123276 0)
(11.1188 0.142407 0)
(11.1593 0.165133 0)
(11.1795 0.184518 0)
(11.2178 0.213542 0)
(11.2408 0.238409 0)
(11.2808 0.262553 0)
(11.3126 0.308294 0)
(11.3484 0.319615 0)
(11.3895 0.38189 0)
(11.4321 0.404341 0)
(11.4693 0.451234 0)
(11.5299 0.51594 0)
(11.5644 0.538532 0)
(11.6355 0.634432 0)
(11.6785 0.669671 0)
(11.7603 0.758499 0)
(11.8072 0.84278 0)
(11.9017 0.923638 0)
(11.9711 1.04167 0)
(12.0545 1.15511 0)
(12.1522 1.29677 0)
(12.2501 1.45399 0)
(12.329 1.64667 0)
(12.4613 1.84137 0)
(12.52 2.11989 0)
(12.6438 2.36924 0)
(12.6662 2.70881 0)
(12.7991 3.08751 0)
(12.6869 3.43526 0)
(12.8111 3.95456 0)
(9.99776 -0.0107515 0)
(10.008 -0.0259452 0)
(10.0126 -0.0454203 0)
(10.0307 -0.0570933 0)
(10.0449 -0.0699078 0)
(10.0678 -0.0761028 0)
(10.0877 -0.0823014 0)
(10.1112 -0.0856727 0)
(10.1321 -0.0878773 0)
(10.1556 -0.0919147 0)
(10.176 -0.0909728 0)
(10.1998 -0.0974728 0)
(10.2205 -0.0936339 0)
(10.2444 -0.101442 0)
(10.2665 -0.0966756 0)
(10.2914 -0.102323 0)
(10.3131 -0.0999494 0)
(10.3408 -0.100986 0)
(10.3592 -0.102066 0)
(10.3911 -0.0998452 0)
(10.4067 -0.101303 0)
(10.4402 -0.0999668 0)
(10.4568 -0.098215 0)
(10.4876 -0.0994265 0)
(10.5076 -0.0953012 0)
(10.5365 -0.0958642 0)
(10.556 -0.093326 0)
(10.589 -0.0900999 0)
(10.6021 -0.0897873 0)
(10.6415 -0.0847475 0)
(10.6509 -0.0825533 0)
(10.6893 -0.0796482 0)
(10.705 -0.0730782 0)
(10.7329 -0.071586 0)
(10.76 -0.064393 0)
(10.7783 -0.0578604 0)
(10.8104 -0.0573023 0)
(10.8288 -0.0395593 0)
(10.8558 -0.0475936 0)
(10.8823 -0.0227526 0)
(10.9005 -0.0280046 0)
(10.9341 -0.01155 0)
(10.9488 0.000456521 0)
(10.9833 0.00269383 0)
(10.998 0.0257382 0)
(11.0362 0.0313379 0)
(11.0448 0.0450231 0)
(11.0925 0.0664468 0)
(11.0959 0.075318 0)
(11.1443 0.0944671 0)
(11.1584 0.120522 0)
(11.1945 0.125558 0)
(11.2226 0.164843 0)
(11.2573 0.174197 0)
(11.2846 0.206068 0)
(11.328 0.236062 0)
(11.3585 0.253082 0)
(11.4007 0.305709 0)
(11.4427 0.316455 0)
(11.4874 0.372226 0)
(11.5353 0.41245 0)
(11.5845 0.432931 0)
(11.6502 0.534664 0)
(11.6906 0.51732 0)
(11.7853 0.655274 0)
(11.8256 0.658622 0)
(11.9227 0.778198 0)
(12.016 0.835417 0)
(12.0679 0.965498 0)
(12.2313 1.02876 0)
(12.2814 1.22144 0)
(12.4499 1.31522 0)
(12.5241 1.52456 0)
(12.7305 1.74003 0)
(12.755 1.95583 0)
(13.0166 2.29538 0)
(12.9888 2.59069 0)
(13.2223 3.02614 0)
(13.153 3.46281 0)
(13.2572 3.93892 0)
(9.99688 -0.0143961 0)
(10.0108 -0.0364463 0)
(10.0153 -0.0614066 0)
(10.0402 -0.0758312 0)
(10.0553 -0.0911294 0)
(10.0846 -0.0965991 0)
(10.1039 -0.104396 0)
(10.1313 -0.106131 0)
(10.1509 -0.110184 0)
(10.1762 -0.113337 0)
(10.196 -0.113826 0)
(10.2201 -0.120632 0)
(10.2418 -0.116713 0)
(10.2649 -0.125816 0)
(10.2893 -0.119563 0)
(10.3126 -0.127224 0)
(10.3365 -0.122787 0)
(10.3631 -0.126145 0)
(10.3825 -0.125092 0)
(10.4149 -0.125154 0)
(10.4296 -0.12467 0)
(10.4651 -0.125331 0)
(10.4799 -0.121888 0)
(10.5128 -0.124857 0)
(10.532 -0.119007 0)
(10.5609 -0.121643 0)
(10.5828 -0.11657 0)
(10.6116 -0.116822 0)
(10.6321 -0.111766 0)
(10.6621 -0.113213 0)
(10.6836 -0.102494 0)
(10.7086 -0.110075 0)
(10.7392 -0.0913198 0)
(10.7522 -0.102868 0)
(10.7944 -0.0823658 0)
(10.7985 -0.0884974 0)
(10.8445 -0.0762269 0)
(10.8502 -0.0686094 0)
(10.8896 -0.0683427 0)
(10.9046 -0.049618 0)
(10.935 -0.0508537 0)
(10.9557 -0.0370889 0)
(10.986 -0.0226954 0)
(11.0029 -0.0245831 0)
(11.0386 0.00503084 0)
(11.0565 8.80976e-05 0)
(11.0818 0.0265531 0)
(11.1233 0.0331148 0)
(11.1231 0.0541006 0)
(11.1868 0.063461 0)
(11.1818 0.0927129 0)
(11.2398 0.0961376 0)
(11.2512 0.133651 0)
(11.302 0.13726 0)
(11.3203 0.184022 0)
(11.37 0.175334 0)
(11.4088 0.252525 0)
(11.4341 0.218382 0)
(11.5095 0.319051 0)
(11.5252 0.293772 0)
(11.5971 0.370099 0)
(11.6552 0.399739 0)
(11.6906 0.433031 0)
(11.7983 0.503175 0)
(11.8258 0.545606 0)
(11.9409 0.606997 0)
(12.0046 0.677866 0)
(12.1193 0.771038 0)
(12.1974 0.818302 0)
(12.3604 0.97612 0)
(12.4304 1.04159 0)
(12.6383 1.21863 0)
(12.7332 1.35322 0)
(12.9553 1.575 0)
(13.0926 1.81586 0)
(13.2866 2.07284 0)
(13.4723 2.51331 0)
(13.5922 2.8554 0)
(13.7474 3.44138 0)
(13.7703 3.96212 0)
(9.99263 -0.0196541 0)
(10.0189 -0.0508486 0)
(10.0187 -0.0820595 0)
(10.0597 -0.0984203 0)
(10.0703 -0.116669 0)
(10.1134 -0.119083 0)
(10.1262 -0.13105 0)
(10.1624 -0.127805 0)
(10.1766 -0.138616 0)
(10.2053 -0.136412 0)
(10.2245 -0.143737 0)
(10.247 -0.146 0)
(10.2731 -0.14619 0)
(10.2908 -0.152937 0)
(10.3222 -0.147842 0)
(10.3384 -0.155152 0)
(10.3693 -0.150767 0)
(10.3893 -0.154005 0)
(10.414 -0.153599 0)
(10.4409 -0.152734 0)
(10.4598 -0.15357 0)
(10.4897 -0.152826 0)
(10.5091 -0.151049 0)
(10.5352 -0.151593 0)
(10.56 -0.149531 0)
(10.581 -0.146033 0)
(10.6084 -0.149609 0)
(10.6293 -0.138578 0)
(10.6546 -0.146207 0)
(10.6765 -0.134592 0)
(10.7037 -0.135199 0)
(10.7172 -0.134343 0)
(10.7586 -0.11923 0)
(10.7528 -0.132534 0)
(10.8134 -0.103978 0)
(10.7918 -0.123332 0)
(10.8597 -0.0945959 0)
(10.8409 -0.102536 0)
(10.8953 -0.0920376 0)
(10.8972 -0.0742729 0)
(10.9292 -0.0853943 0)
(10.9486 -0.0523929 0)
(10.9744 -0.0635 0)
(10.9891 -0.0377796 0)
(11.0269 -0.0364746 0)
(11.0352 -0.0144506 0)
(11.0679 -0.0160934 0)
(11.1003 0.018657 0)
(11.104 0.00740076 0)
(11.1625 0.0493217 0)
(11.1628 0.0415617 0)
(11.2111 0.0804334 0)
(11.2331 0.0794626 0)
(11.2799 0.118352 0)
(11.2897 0.120453 0)
(11.3735 0.16704 0)
(11.355 0.157524 0)
(11.468 0.238959 0)
(11.4465 0.186009 0)
(11.5665 0.324369 0)
(11.5625 0.233163 0)
(11.6731 0.39846 0)
(11.7107 0.318547 0)
(11.7938 0.457207 0)
(11.893 0.445633 0)
(11.9409 0.529744 0)
(12.0967 0.571124 0)
(12.1589 0.665463 0)
(12.3031 0.710107 0)
(12.4394 0.815726 0)
(12.6054 0.936237 0)
(12.7247 0.999117 0)
(12.9978 1.22682 0)
(13.1418 1.31815 0)
(13.4084 1.59835 0)
(13.65 1.85449 0)
(13.8961 2.22023 0)
(14.151 2.68168 0)
(14.2992 3.2692 0)
(14.5042 3.9518 0)
(9.98741 -0.0275861 0)
(10.0311 -0.0685235 0)
(10.0287 -0.100706 0)
(10.0892 -0.115629 0)
(10.0961 -0.127932 0)
(10.1526 -0.129059 0)
(10.1585 -0.13764 0)