/*--------------------------------*- C++ -*----------------------------------*\
| =========                 |                                                 |
| \\      /  F ield         | OpenFOAM: The Open Source CFD Toolbox           |
|  \\    /   O peration     | Version:  2306                                  |
|   \\  /    A nd           | Website:  www.openfoam.com                      |
|    \\/     M anipulation  |                                                 |
\*---------------------------------------------------------------------------*/
FoamFile
{
    version     2.0;
    format      ascii;
    arch        "LSB;label=32;scalar=64";
    class       volScalarField;
    location    "0.45";
    object      p;
}
// * * * * * * * * * * * * * * * * * * * * * * * * * * * * * * * * * * * * * //

dimensions      [0 2 -2 0 0 0 0];

internalField   nonuniform List<scalar> 
4400
(
390.248
389.232
388.325
387.653
387.203
386.896
386.652
386.423
386.19
385.949
385.703
385.456
385.209
384.963
384.719
384.475
384.232
383.989
383.745
383.501
383.256
383.012
382.768
382.525
382.282
382.042
381.803
381.567
381.334
381.104
380.879
380.658
380.442
380.233
380.029
379.834
379.646
379.467
379.297
379.137
378.988
378.85
378.725
378.611
378.51
378.422
378.348
378.287
378.239
378.203
378.18
378.167
378.163
378.166
378.172
378.178
378.178
378.166
378.137
378.083
377.999
377.877
377.72
377.54
377.387
377.307
377.373
377.659
378.196
378.949
379.828
380.538
380.819
380.622
380.53
380.436
380.846
381.019
380.752
380.57
388.786
388.443
388.011
387.569
387.178
386.853
386.585
386.35
386.126
385.901
385.671
385.434
385.193
384.95
384.707
384.464
384.221
383.979
383.736
383.493
383.25
383.007
382.764
382.521
382.28
382.04
381.802
381.566
381.333
381.104
380.878
380.657
380.441
380.231
380.028
379.832
379.642
379.462
379.291
379.129
378.978
378.837
378.708
378.591
378.487
378.395
378.317
378.251
378.199
378.159
378.131
378.113
378.105
378.103
378.104
378.106
378.103
378.089
378.059
378.005
377.92
377.802
377.65
377.477
377.322
377.25
377.338
377.677
378.312
379.247
380.354
381.285
381.318
380.514
380.047
379.824
380.035
380.67
380.907
380.837
388.24
388.074
387.817
387.499
387.165
386.85
386.569
386.319
386.09
385.869
385.645
385.416
385.181
384.942
384.7
384.457
384.215
383.973
383.73
383.488
383.246
383.004
382.761
382.52
382.279
382.039
381.801
381.565
381.333
381.103
380.877
380.655
380.438
380.226
380.021
379.822
379.63
379.446
379.27
379.103
378.945
378.798
378.66
378.533
378.418
378.313
378.22
378.139
378.069
378.009
377.96
377.919
377.886
377.858
377.833
377.808
377.779
377.74
377.69
377.621
377.536
377.43
377.315
377.205
377.137
377.174
377.362
377.742
378.315
379.057
379.837
380.406
380.587
380.409
380.45
380.676
381.198
382.005
381.33
380.38
387.825
387.725
387.55
387.318
387.052
386.78
386.517
386.272
386.042
385.821
385.602
385.379
385.152
384.918
384.681
384.441
384.201
383.96
383.719
383.477
383.236
382.995
382.753
382.513
382.272
382.033
381.795
381.559
381.326
381.096
380.869
380.645
380.427
380.212
380.004
379.801
379.605
379.415
379.233
379.059
378.893
378.735
378.586
378.447
378.317
378.197
378.086
377.985
377.893
377.809
377.734
377.665
377.601
377.541
377.482
377.422
377.359
377.289
377.209
377.12
377.023
376.92
376.828
376.753
376.738
376.8
376.979
377.277
377.692
378.205
378.744
379.23
379.585
379.823
379.989
380.151
380.314
380.514
380.697
381.253
387.525
387.456
387.331
387.157
386.945
386.712
386.474
386.24
386.013
385.792
385.573
385.353
385.13
384.901
384.668
384.431
384.192
383.952
383.712
383.471
383.23
382.989
382.747
382.507
382.266
382.027
381.788
381.552
381.318
381.086
380.857
380.632
380.41
380.194
379.981
379.774
379.573
379.377
379.188
379.005
378.831
378.662
378.503
378.349
378.205
378.068
377.938
377.817
377.702
377.594
377.491
377.393
377.298
377.204
377.11
377.013
376.914
376.807
376.698
376.579
376.462
376.345
376.243
376.167
376.134
376.16
376.262
376.44
376.711
377.035
377.426
377.802
378.166
378.446
378.66
378.848
379.076
379.488
379.997
380.408
387.307
387.254
387.157
387.019
386.844
386.644
386.428
386.207
385.986
385.766
385.548
385.329
385.108
384.882
384.652
384.418
384.181
383.943
383.703
383.462
383.222
382.98
382.739
382.498
382.257
382.017
381.778
381.541
381.305
381.072
380.841
380.613
380.388
380.169
379.952
379.74
379.533
379.33
379.135
378.944
378.76
378.58
378.409
378.242
378.084
377.929
377.782
377.641
377.502
377.371
377.24
377.115
376.986
376.862
376.731
376.602
376.463
376.325
376.176
376.03
375.878
375.733
375.601
375.483
375.407
375.356
375.373
375.426
375.561
375.727
375.961
376.192
376.446
376.654
376.862
377.055
377.338
377.684
378.047
378.287
387.148
387.105
387.024
386.907
386.757
386.58
386.383
386.175
385.961
385.745
385.527
385.309
385.089
384.864
384.637
384.405
384.171
383.933
383.694
383.453
383.213
382.971
382.73
382.488
382.247
382.005
381.766
381.527
381.29
381.054
380.821
380.59
380.362
380.139
379.916
379.7
379.487
379.279
379.075
378.876
378.681
378.493
378.308
378.129
377.956
377.785
377.62
377.458
377.299
377.143
376.987
376.833
376.675
376.52
376.354
376.193
376.017
375.844
375.659
375.474
375.285
375.097
374.921
374.746
374.603
374.471
374.385
374.325
374.316
374.337
374.4
374.478
374.581
374.674
374.789
374.925
375.083
375.312
375.513
375.722
387.035
386.999
386.927
386.824
386.689
386.527
386.345
386.147
385.94
385.727
385.512
385.294
385.074
384.85
384.624
384.394
384.16
383.924
383.685
383.445
383.204
382.961
382.719
382.476
382.234
381.992
381.751
381.51
381.271
381.033
380.797
380.563
380.331
380.104
379.877
379.656
379.436
379.221
379.009
378.803
378.597
378.4
378.202
378.011
377.822
377.636
377.453
377.272
377.092
376.913
376.734
376.55
376.369
376.176
375.988
375.782
375.582
375.363
375.145
374.916
374.682
374.449
374.21
373.978
373.752
373.536
373.342
373.16
373.015
372.881
372.774
372.699
372.607
372.582
372.522
372.531
372.546
372.604
372.722
372.874
386.963
386.929
386.864
386.768
386.642
386.491
386.317
386.127
385.925
385.714
385.501
385.283
385.063
384.839
384.613
384.384
384.151
383.915
383.677
383.436
383.194
382.952
382.708
382.465
382.22
381.978
381.733
381.492
381.25
381.009
380.771
380.533
380.298
380.065
379.833
379.607
379.381
379.159
378.94
378.723
378.51
378.301
378.092
377.888
377.685
377.483
377.285
377.083
376.885
376.683
376.48
376.271
376.062
375.842
375.62
375.385
375.145
374.892
374.634
374.358
374.08
373.787
373.49
373.184
372.877
372.569
372.257
371.966
371.656
371.385
371.096
370.837
370.58
370.35
370.12
369.952
369.775
369.699
369.684
369.77
386.928
386.895
386.832
386.74
386.618
386.472
386.302
386.115
385.915
385.707
385.494
385.276
385.056
384.832
384.606
384.377
384.144
383.908
383.669
383.428
383.185
382.941
382.696
382.452
382.205
381.962
381.714
381.472
381.226
380.983
380.741
380.499
380.261
380.023
379.787
379.554
379.322
379.092
378.867
378.64
378.42
378.198
377.979
377.762
377.545
377.329
377.114
376.895
376.676
376.456
376.225
375.999
375.757
375.514
375.259
374.993
374.719
374.426
374.128
373.805
373.477
373.126
372.763
372.384
371.989
371.583
371.159
370.732
370.283
369.844
369.37
368.934
368.453
368.023
367.587
367.18
366.834
366.562
366.389
366.407
386.927
386.894
386.831
386.738
386.617
386.471
386.301
386.114
385.913
385.705
385.491
385.273
385.052
384.828
384.602
384.372
384.138
383.902
383.661
383.42
383.175
382.931
382.684
382.437
382.19
381.944
381.694
381.45
381.2
380.955
380.709
380.463
380.222
379.977
379.737
379.498
379.259
379.024
378.79
378.554
378.326
378.093
377.863
377.636
377.402
377.176
376.941
376.707
376.472
376.227
375.982
375.725
375.464
375.19
374.908
374.61
374.299
373.973
373.628
373.263
372.88
372.471
372.041
371.583
371.104
370.592
370.052
369.496
368.885
368.279
367.624
366.953
366.278
365.586
364.896
364.27
363.647
363.169
362.803
362.618
386.961
386.926
386.861
386.764
386.639
386.487
386.313
386.122
385.918
385.708
385.493
385.275
385.053
384.828
384.601
384.37
384.134
383.897
383.654
383.413
383.166
382.92
382.671
382.422
382.174
381.925
381.674
381.426
381.172
380.924
380.675
380.424
380.18
379.928
379.685
379.439
379.193
378.954
378.709
378.468
378.23
377.985
377.748
377.505
377.262
377.02
376.773
376.519
376.27
376.002
375.74
375.461
375.174
374.877
374.566
374.237
373.894
373.53
373.144
372.735
372.295
371.835
371.327
370.805
370.225
369.612
368.966
368.244
367.509
366.7
365.837
364.971
364.001
363.057
362.097
361.111
360.249
359.43
358.792
358.394
387.032
386.993
386.922
386.817
386.683
386.522
386.338
386.139
385.93
385.717
385.499
385.28
385.058
384.832
384.603
384.369
384.132
383.893
383.649
383.406
383.156
382.909
382.658
382.407
382.158
381.904
381.652
381.4
381.143
380.893
380.637
380.385
380.134
379.878
379.63
379.377
379.127
378.879
378.627
378.377
378.132
377.875
377.633
377.374
377.122
376.867
376.601
376.342
376.066
375.789
375.503
375.204
374.896
374.574
374.233
373.881
373.5
373.104
372.679
372.219
371.741
371.208
370.65
370.039
369.378
368.669
367.881
367.054
366.124
365.138
364.082
362.907
361.724
360.432
359.104
357.814
356.494
355.305
354.309
353.484
387.141
387.098
387.018
386.899
386.749
386.571
386.374
386.164
385.947
385.731
385.51
385.291
385.066
384.84
384.608
384.372
384.132
383.89
383.645
383.399
383.148
382.898
382.646
382.392
382.141
381.883
381.63
381.372
381.114
380.859
380.6
380.343
380.088
379.825
379.575
379.312
379.059
378.803
378.542
378.29
378.028
377.77
377.513
377.245
376.984
376.714
376.435
376.165
375.869
375.579
375.275
374.953
374.631
374.278
373.92
373.535
373.126
372.699
372.231
371.736
371.202
370.624
369.988
369.325
368.558
367.759
366.871
365.864
364.821
363.613
362.306
360.936
359.352
357.737
356.049
354.204
352.438
350.746
349.147
347.874
387.297
387.246
387.15
387.009
386.835
386.632
386.416
386.193
385.969
385.749
385.527
385.306
385.08
384.852
384.616
384.376
384.134
383.888
383.641
383.393
383.14
382.888
382.634
382.378
382.124
381.862
381.607
381.344
381.084
380.825
380.56
380.301
380.038
379.774
379.515
379.248
378.987
378.726
378.456
378.2
377.926
377.663
377.396
377.115
376.851
376.559
376.279
375.988
375.679
375.38
375.05
374.719
374.374
373.998
373.62
373.21
372.766
372.322
371.804
371.281
370.705
370.055
369.4
368.623
367.811
366.919
365.872
364.818
363.536
362.151
360.67
358.924
357.042
355.056
352.785
350.447
348.043
345.57
343.291
341.265
387.513
387.446
387.323
387.146
386.934
386.698
386.46
386.222
385.994
385.77
385.548
385.326
385.097
384.865
384.625
384.382
384.135
383.888
383.637
383.388
383.132
382.879
382.622
382.363
382.106
381.841
381.583
381.316
381.053
380.79
380.52
380.259
379.986
379.722
379.453
379.184
378.916
378.647
378.372
378.107
377.825
377.558
377.277
376.991
376.719
376.409
376.132
375.811
375.5
375.19
374.831
374.501
374.127
373.729
373.351
372.887
372.449
371.954
371.414
370.858
370.232
369.552
368.826
368.007
367.123
366.123
365.023
363.792
362.382
360.842
359.074
357.075
354.849
352.342
349.565
346.469
343.196
339.927
336.453
333.325
387.812
387.714
387.541
387.305
387.039
386.764
386.502
386.252
386.021
385.797
385.574
385.348
385.114
384.877
384.632
384.385
384.135
383.886
383.633
383.382
383.123
382.869
382.608
382.348
382.088
381.819
381.558
381.286
381.021
380.752
380.479
380.212
379.935
379.666
379.392
379.116
378.843
378.567
378.285
378.016
377.72
377.454
377.152
376.873
376.578
376.266
375.986
375.635
375.341
374.991
374.638
374.291
373.892
373.489
373.085
372.604
372.137
371.636
371.028
370.495
369.776
369.098
368.326
367.424
366.538
365.417
364.235
362.935
361.315
359.647
357.722
355.38
352.763
349.946
346.331
342.379
338.179
333.394
328.56
323.777
388.227
388.062
387.805
387.485
387.151
386.834
386.552
386.298
386.068
385.842
385.615
385.38
385.141
384.894
384.647
384.394
384.144
383.89
383.635
383.383
383.12
382.864
382.599
382.335
382.072
381.799
381.536
381.259
380.991
380.715
380.442
380.165
379.891
379.607
379.336
379.048
378.772
378.49
378.201
377.926
377.624
377.351
377.039
376.761
376.445
376.14
375.844
375.484
375.197
374.809
374.468
374.105
373.681
373.286
372.85
372.346
371.9
371.306
370.754
370.149
369.385
368.756
367.84
366.972
366.041
364.766
363.657
362.131
360.439
358.697
356.512
353.915
351.165
347.652
343.466
338.638
332.903
326.206
319.006
311.995
388.771
388.431
387.999
387.556
387.163
386.835
386.566
386.327
386.102
385.873
385.637
385.396
385.149
384.899
384.651
384.395
384.146
383.89
383.634
383.379
383.113
382.856
382.587
382.322
382.055
381.78
381.512
381.233
380.96
380.681
380.403
380.121
379.844
379.553
379.28
378.983
378.706
378.415
378.123
377.841
377.535
377.255
376.936
376.657
376.321
376.028
375.697
375.354
375.047
374.659
374.32
373.935
373.519
373.108
372.671
372.147
371.715
371.051
370.561
369.868
369.107
368.479
367.45
366.669
365.485
364.48
362.973
361.642
359.857
357.895
355.624
352.905
349.601
346.169
340.841
335.765
327.6
319.041
306.482
294.608
390.231
389.221
388.314
387.639
387.187
386.878
386.632
386.4
386.164
385.921
385.669
385.417
385.163
384.911
384.659
384.405
384.153
383.897
383.638
383.381
383.115
382.853
382.585
382.316
382.047
381.772
381.499
381.222
380.942
380.666
380.38
380.102
379.815
379.529
379.248
378.954
378.672
378.379
378.085
377.801
377.492
377.212
376.895
376.603
376.289
375.971
375.658
375.318
374.982
374.635
374.252
373.884
373.474
373.032
372.614
372.084
371.614
371.015
370.479
369.723
369.141
368.239
367.479
366.406
365.481
364.187
362.898
361.504
359.708
357.515
355.624
352.124
349.534
344.961
340.58
333.647
326.117
313.922
297.774
272.765
380.497
380.185
379.912
379.647
379.438
379.347
379.38
379.543
379.826
380.143
380.444
380.977
381.555
381.709
381.692
382.185
383.104
384.23
385.195
385.287
380.794
380.364
379.86
379.479
379.145
379.092
379.154
379.346
379.674
380.091
380.496
380.853
381.006
380.907
380.93
381.481
382.422
383.556
384.611
385.015
380.165
380.116
379.864
379.458
379.087
378.879
378.846
379.141
379.661
380.166
380.591
380.761
380.488
379.883
379.777
380.332
381.318
382.375
383.583
384.44
381.977
381.903
379.862
378.595
377.734
377.808
378.471
378.942
379.752
380.55
380.984
380.817
380.043
379.076
378.863
379.463
380.414
381.231
382.384
383.702
380.303
379.754
378.767
378.232
377.57
377.159
376.598
377.772
379.837
380.958
381.362
381.141
380.243
379.199
378.749
378.834
379.487
380.226
381.419
383.003
378.292
378.15
377.77
377.184
376.41
375.552
376.617
378.81
379.843
381.354
381.888
381.685
380.774
379.868
379.021
378.353
380.007
381.248
380.763
382.405
375.889
375.942
375.96
375.745
375.712
375.886
377.021
378.291
380.241
381.853
382.068
382.263
381.766
380.593
378.837
378.444
379.041
378.948
378.375
382.399
373.1
373.321
373.627
373.926
374.516
375.35
376.652
378.267
380.124
381.48
382.207
382.485
382.224
381.666
381.415
381.351
382.446
383.214
381.555
386.52
370.007
370.352
370.867
371.571
372.553
373.827
375.516
377.437
379.642
381.473
383.314
384.378
383.705
382.453
380.297
379.032
380.568
381.958
382.829
390.199
366.558
366.969
367.628
368.541
369.816
371.445
373.522
375.978
378.651
380.965
382.14
382.721
383.749
382.658
382.555
385.117
388.509
389.783
387.828
400.456
362.714
363.048
363.746
364.848
366.318
368.289
370.737
373.666
376.88
380.821
384.812
388.314
385.806
381.82
383.439
385.747
388.619
388.821
384.875
392.067
358.232
358.52
359.195
360.32
362.089
364.384
367.218
370.549
373.75
376.432
378.665
380.03
379.89
382.287
385.594
387.513
388.41
389.647
392.022
393.628
353.115
353.146
353.763
355.051
356.888
359.474
362.826
366.772
371.245
375.486
378.588
380.938
383.177
385.789
388.858
390.057
389.841
389.757
388.755
389.623
347.039
346.754
347.241
348.564
350.832
353.818
357.079
360.693
364.544
368.995
374.058
379.436
384.018
387.462
389.961
390.875
389.651
387.779
386.2
386.733
339.763
339.082
339.17
340.476
343.171
347.209
352.41
357.494
361.656
364.847
368.41
373.924
379.849
385.012
388.214
389.019
388.19
385.812
384.3
384.329
330.899
329.428
329.484
330.873
333.617
337.431
342.038
347.456
353.621
359.963
366.144
371.758
376.678
381.447
384.739
385.709
384.961
382.674
381.193
381.353
319.598
316.623
316.175
319.092
324.591
330.509
335.693
339.398
343.808
350.788
358.709
365.42
371.065
376.059
379.541
380.672
379.995
377.892
376.63
377.087
305.327
300.496
298.861
301.596
307.873
315.542
324.218
332.167
339.32
345.606
351.974
358.277
364.026
369.141
372.95
374.573
374.113
372.563
371.878
372.467
283.194
276.759
279.907
287.934
294.643
300.632
307.637
317.396
328.289
337.595
344.991
351.115
356.488
361.65
365.969
368.206
368.229
367.431
367.357
368.31
243.246
234.203
246.078
263.357
278.242
289.056
297.629
306.856
317.012
327.032
335.669
342.848
348.935
354.311
358.883
361.957
363.223
363.711
364.45
366.043
193.325
201.954
217.142
230.026
244.951
264.97
282.543
295.505
306.607
316.995
326.193
334.085
340.752
346.394
351.45
355.888
359.09
361.326
363.334
365.204
201.613
198.046
206.918
210.634
220.653
237.209
261.257
282.012
296.018
307.45
317.567
325.933
333.268
339.832
345.753
351.27
355.912
359.339
362.067
363.845
201.731
208.903
205.437
201.976
207.2
221.178
240.626
263.179
282.814
297.589
308.599
317.806
326.018
333.356
340.041
346.203
351.556
355.911
359.503
361.803
205.946
203.195
194.977
195.492
202.054
208.161
223.337
248.587
270.435
286.863
299.243
309.616
318.519
326.326
333.322
339.829
345.983
351.497
355.978
358.694
209.755
204.363
192.953
192.495
198.822
204.809
206.838
231.284
259.954
279.932
292.311
302.45
311.645
319.844
326.987
333.513
339.996
346.167
351.128
353.911
220.805
214.344
204.544
202.954
211.327
199.895
197.793
225.201
252.032
272.784
286.523
296.396
304.989
313.031
320.443
327.184
333.711
339.778
344.655
347.488
222.069
218.612
211.865
208.066
206.591
200.891
206.697
217.415
248.517
269.637
281.893
290.998
299.04
306.577
313.469
319.86
326.229
332.221
337.103
339.945
223.237
219.547
214.822
211.08
209.249
210.897
213.869
234.065
255.434
267.084
277.72
286.101
293.724
300.641
306.745
312.349
318.089
323.729
328.463
331.254
221.244
218.539
215.163
213.761
215.993
222.904
234.603
251.155
259.418
272.715
278.047
282.641
288.418
294.405
299.905
304.858
309.963
315.044
319.325
321.829
217.935
215.887
213.282
213.988
217.377
228.127
243.928
257.376
278.296
277.988
278.643
280.614
283.49
287.523
292.142
296.718
301.449
305.979
309.747
311.886
216.15
215.262
211.463
215.238
217.707
230.589
252.912
264.076
279.276
279.058
279.195
277.834
278.037
280.263
283.976
288.076
292.301
296.353
299.619
301.469
215.844
215.307
213.708
216.015
219.764
229.136
249.406
264.113
271.24
280.137
273.087
269.897
269.522
271.461
274.847
278.537
282.338
286.003
288.968
290.684
216.614
217.258
214.776
215.866
220.241
226.281
239.327
253.802
259.779
264.753
260.883
257.046
256.548
259.532
263.755
267.84
271.721
275.138
277.799
279.319
215.908
218.41
215.227
212.54
212.338
214.333
221.141
230.985
236.462
240.133
242.606
239.123
239.477
244.34
250.234
255.514
259.933
263.379
265.997
267.665
213.628
212.888
210.172
202.614
195.729
192.784
194.62
200.108
205.729
211.539
216.054
215.611
218.634
226.54
234.833
241.668
247.036
251.128
254.115
255.73
216.964
208.342
198.138
184.874
172.732
165.997
164.9
166.954
172.64
180.404
185.817
188.524
195.114
206.87
218.149
226.88
233.504
238.281
241.638
243.609
212.565
198.26
179.838
160.995
145.402
136.101
132.977
133.889
139.87
148.772
155.241
160.574
170.916
186.565
200.678
211.442
219.564
225.543
229.86
231.949
193.169
177.535
155.58
133.812
116.584
105.907
101.442
102.336
108.853
118.051
125.104
132.767
146.81
166.156
183.468
196.733
206.57
213.695
218.611
220.856
165.87
151.109
128.697
106.234
88.6853
77.6273
72.6782
73.5611
79.8123
88.2534
95.5348
105.489
123.541
146.993
167.423
182.86
194.43
202.815
208.567
211.322
136.889
123.281
102.021
80.6523
63.8117
52.7426
47.642
48.3043
53.1913
59.6988
67.0285
79.7749
102.819
130.325
153.23
171.132
184.709
194.048
200.596
203.352
110.438
98.3122
78.9453
59.4208
43.7453
32.9716
27.3901
26.9043
29.4856
33.9036
41.7957
57.817
85.809
116.634
142.272
162.571
177.218
187.072
194.254
198.027
89.4092
78.6632
61.386
43.7237
29.3513
19.1515
13.2591
10.9033
10.7296
13.7934
23.0619
41.5951
74.2912
107.432
135.392
156.681
172.372
183.759
191.493
195.12
74.9836
65.7163
50.6016
34.938
21.7681
11.9795
5.67643
1.6796
-0.396661
2.683
14.36
37.1731
70.782
104.937
133.185
154.533
170.699
182.437
190.428
194.752
67.8942
59.8291
46.6079
32.9612
21.311
12.3243
6.11688
1.41295
-1.70224
2.83178
17.7972
44.1508
77.8853
110.14
135.776
155.918
171.831
183.744
192.393
196.814
67.8547
61.0254
49.7179
37.8908
27.8685
20.2656
14.807
10.2457
8.29217
15.1642
32.7732
60.3775
92.0129
120.19
142.781
161.51
176.368
187.768
196.299
200.764
74.2488
68.433
58.6274
49.0749
41.1578
35.3754
31.3803
28.1973
28.465
37.3791
55.8615
81.6352
108.928
132.433
152.195
168.963
182.546
193.565
202.386
207.13
85.8647
80.9372
72.9261
65.2694
59.4378
55.9439
53.9778
52.8954
55.4124
65.3097
82.4938
104.199
126.036
145.001
162.273
177.441
190.342
201.29
209.863
214.216
101.584
97.4855
91.0988
85.2959
81.2511
79.7949
79.9526
80.802
84.7133
94.208
108.646
125.701
142.512
157.923
172.7
186.105
198.153
208.602
217.405
222.579
120.386
116.978
111.791
107.374
104.776
104.763
106.538
108.714
112.92
120.919
132.028
144.941
157.752
170.189
182.528
194.47
206.009
216.774
226.018
230.716
140.943
138.135
133.909
130.427
128.738
129.361
131.667
134.327
138.035
144.079
152.079
161.553
171.401
181.622
191.967
202.734
213.546
223.826
233.377
239.363
162.401
159.961
156.294
153.342
152.01
152.716
154.695
156.882
159.551
163.648
169.166
176.014
183.708
191.799
200.241
209.515
219.371
230.283
241.132
247.088
183.711
181.532
178.238
175.471
173.995
174.221
175.36
176.494
177.934
180.282
183.82
188.532
194.373
200.533
207.423
215.613
224.59
234.766
245.35
253.463
204.385
202.248
198.968
196.043
194.191
193.7
193.733
193.554
193.629
194.42
196.249
199.238
203.479
208.013
213.87
220.559
227.5
236.194
247.88
256.524
223.82
221.714
218.333
214.989
212.449
211.1
210.005
208.544
207.299
206.709
207.011
208.434
211.098
214.178
218.741
223.786
229.525
235.616
241.417
248.82
241.763
239.658
236.076
232.335
228.898
226.502
224.334
221.77
219.439
217.607
216.453
216.353
217.423
219.024
222.18
225.703
230.145
232.979
229.936
237.731
257.858
255.833
252.223
248.054
243.826
240.332
237.16
233.463
230.21
227.203
224.828
223.34
222.871
223.025
224.164
225.67
228.791
232.477
232.399
231.347
272.071
270.088
266.535
262.105
257.263
252.812
248.771
243.991
239.774
235.767
232.239
229.547
227.481
225.913
224.818
224.515
226.224
231.054
239.76
227.664
284.14
282.327
278.934
274.485
269.236
263.977
259.183
253.528
248.096
243.284
238.695
234.755
231.062
227.919
224.902
222.999
222.462
223.269
237.141
227.417
294.172
292.504
289.366
285.049
279.639
273.752
268.12
261.888
255.308
249.734
244.157
239.099
233.983
229.319
224.561
220.922
218.101
216.402
224.31
222.894
302.135
300.615
297.705
293.614
288.214
281.944
275.462
268.847
261.499
255.216
248.944
242.806
236.604
230.564
223.992
218.492
213.835
210.637
211.136
216.111
308.115
306.674
303.91
300.106
294.898
288.578
281.561
274.568
266.806
259.922
253.156
246.309
239.244
232.023
223.984
216.204
208.997
205.127
202.912
209.911
312.45
310.966
308.169
304.564
299.665
293.579
286.52
279.355
271.585
264.178
257.201
249.747
242.101
233.829
224.294
213.747
203.756
202.086
200.818
206.804
315.526
313.945
310.982
307.313
302.664
296.922
290.249
283.106
275.672
268.051
260.909
253.143
244.893
235.697
225.316
213.349
201.729
201.638
203.128
206.041
317.69
316.056
312.858
308.906
304.4
298.965
292.823
285.935
278.874
271.306
264.266
256.265
247.638
238.225
227.877
215.931
204.098
202.834
205.71
207.497
319.374
317.703
314.334
310.028
305.515
300.305
294.655
288.323
281.535
274.372
267.48
259.923
251.113
241.842
232.083
221.078
209.71
206.573
210.275
212.591
320.788
319.18
315.795
311.292
306.695
301.663
296.296
290.652
284.288
277.583
271.1
264.226
256.023
246.978
237.652
227.772
217.83
215.273
219.548
221.171
322.059
320.602
317.422
312.982
308.366
303.567
298.373
293.262
287.434
281.18
275.143
268.94
261.61
253.315
244.303
235.386
228.134
225.228
228.083
229.184
323.173
321.948
319.151
315.07
310.602
306.082
301.176
296.253
291.042
285.1
279.359
273.681
267.162
259.653
251.663
244.156
239.097
236.623
238.228
240.061
324.075
323.092
320.78
317.264
313.133
308.913
304.393
299.569
294.697
289.037
283.595
278.332
272.611
266.081
259.037
253.397
249.654
248.111
249.115
249.846
324.763
323.992
322.083
319.189
315.586
311.657
307.539
302.939
298.134
292.967
287.572
282.918
278.002
272.264
266.809
262.084
258.819
257.024
256.834
258.676
325.253
324.665
323.044
320.648
317.599
314.087
310.3
306.031
301.374
296.439
291.516
287.122
282.811
278.11
273.409
269.647
267.565
267.564
269.578
269.678
325.631
325.155
323.736
321.673
319.079
315.989
312.479
308.687
304.154
299.645
294.932
290.912
287.302
283.031
279.258
276.245
274.759
274.877
275.607
276.061
325.952
325.563
324.287
322.417
320.134
317.386
314.233
310.654
306.73
302.278
298.133
294.477
291.09
287.734
284.546
282.226
281.413
281.524
282.043
282.39
326.31
326.002
324.775
323.065
320.999
318.549
315.624
312.412
308.731
304.817
301.012
297.484
294.54
291.61
289.068
287.4
286.805
286.705
286.763
287.119
326.778
326.487
325.282
323.73
321.81
319.559
317.037
313.861
310.596
306.846
303.317
300.159
297.17
294.642
292.264
290.709
289.87
290.121
290.383
291.505
327.364
326.95
325.878
324.438
322.587
320.571
318.192
315.332
312.017
308.57
305.42
302.265
299.579
296.964
294.372
293.074
292.682
293.191
294.616
294.848
328.203
327.704
326.674
325.287
323.473
321.554
319.308
316.59
313.437
310.32
307.125
304.179
301.667
298.988
296.895
295.69
295.452
296.387
296.288
296.76
329.382
328.93
327.829
326.425
324.683
322.627
320.456
317.796
314.957
311.69
308.647
305.804
303.171
300.96
299.14
298.119
297.615
297.274
297.274
297.269
330.794
330.275
329.235
327.8
326.013
323.929
321.643
319.254
316.211
313.093
309.886
306.841
304.345
301.92
300.221
298.879
297.647
297.961
298.322
298.264
332.596
331.727
331.007
329.38
327.598
325.208
323.199
320.595
317.677
314.432
310.835
307.521
304.697
302.127
300.009
298.326
297.75
296.362
297.51
295.425
335.032
334.03
333.357
331.566
329.402
327.029
324.618
322.014
319.131
315.383
311.688
308.062
304.732
302.04
299.425
297.212
295.342
294.492
293.13
294.542
337.92
337.128
336.221
334.231
331.898
329.149
326.396
323.622
320.02
316.432
312.306
308.376
304.887
301.527
298.058
295.742
293.9
292.322
292.616
291.501
341.094
340.394
339.471
337.413
334.82
331.873
328.689
325.17
321.441
317.161
312.878
308.956
304.718
300.444
296.784
293.675
291.331
289.775
286.973
288.83
344.966
344.22
343.322
340.908
338.339
334.879
331.277
327.26
322.799
318.043
313.731
309.117
304.233
299.328
294.573
290.566
287.483
285.299
284.306
282.928
350.251
349.492
347.711
345.101
341.868
338.412
334.142
329.756
324.515
319.578
314.065
309.015
303.428
297.381
291.814
287.37
282.974
280.161
275.183
277.084
356.679
356.025
352.674
349.346
346.166
341.848
337.775
332.402
327.167
320.907
315.068
308.572
301.784
295.111
289.399
283.087
277.451
273.049
270.001
266.747
362.822
361.835
357.153
354.457
350.401
346.532
341.373
336.17
330.13
323.339
316.221
308.166
300.615
293.27
285.492
278.202
271.388
264.81
252.553
252.614
366.654
363.815
361.212
359.036
355.637
350.897
346.13
340.675
333.371
326.36
317.482
308.883
299.698
290.846
282.416
274.89
264.115
254.151
244.972
235.823
368.626
364.622
365.622
364.195
360.243
356.092
351.566
344.214
337.843
328.455
319.119
308.811
298.37
289.048
279.534
268.324
258.786
244.129
224.36
200.817
371.738
369.884
372.568
369.94
365.956
362.313
356.083
350.505
341.303
332.109
321.244
309.972
298.517
287.162
276.441
266.419
251.674
233.833
207.958
147.208
378.826
379.553
380.568
376.617
373.085
367.86
363.303
355.123
346.821
337.08
324.816
312.392
299.285
288.254
275.13
260.5
247.854
216.683
193.773
76.0971
387.774
389.787
387.798
383.758
379.199
375.128
368.259
361.341
353.317
342.219
330.269
316.995
304.041
286.925
276.821
254.087
244.187
207.801
166.902
93.9024
395.76
398.082
393.838
388.788
384.82
378.676
373.072
366.557
357.493
347.313
338.998
319.384
311.973
291.668
275.882
258.958
234.84
209.232
162.989
125.889
401.747
402.461
396.897
391.165
385.545
379.139
375.113
364.791
364.706
344.451
348.116
318.616
311.093
294.327
272.797
265.383
233.079
213.655
180.734
150.774
405.391
403.165
397.187
389.73
383.697
376.876
373.317
363.575
362.457
344.28
342.401
317.775
306.54
293.563
271.816
267.028
235.976
209.001
192.333
166.431
402.24
396.632
390.238
382.448
376.335
370.19
366.335
359.108
352.168
337.533
325.061
308.089
307.541
286.017
272.141
277.658
239.589
211.202
204.027
169.996
389.484
380.77
374.281
368.585
362.678
363.245
350.805
358.881
334.59
328.391
330.713
300.572
316.645
288.667
280.626
276.917
243.997
225.749
212.539
178.119
384.213
373.78
365.35
359.456
355.697
358.663
342.928
362.406
321.267
346.412
316.846
291.622
311.784
302.845
292.834
285.054
260.525
237.543
219.902
193.772
385.189
375.349
365.27
358.166
355.783
357.697
342.169
372.548
300.472
364.163
313.189
308.205
341.565
327.974
310.184
299.868
270.438
245.38
225.975
198.138
395.893
383.783
370.494
361.622
356.493
353.865
350.039
357.963
314.205
388.823
303.759
370.138
394.416
352.201
333.876
312.226
277.367
250.572
231.244
203.863
-110.841
-70.1116
-109.065
-7.70331
-57.9471
-58.1138
-61.2481
-40.406
-48.4628
-68.2196
-96.5694
-114.874
-134.81
-161.909
-204.658
-267.003
-349.615
-444.907
-544.103
-636.82
-714.716
-771.646
-806.067
-820.375
-819.167
-808.419
-792.39
-772.235
-749.489
-727.154
-705.882
-684.757
-663.275
-638.824
-609.548
-574.279
-524.136
-452.696
-368.402
-270.69
-163.835
-65.7963
21.8168
83.4226
110.417
124.673
120.755
105.096
84.4889
64.5908
48.028
35.3705
27.4731
22.4836
19.5927
15.6921
12.1718
9.4305
3.51478
-10.4195
-32.0407
-58.3332
-83.7345
-102.758
-110.798
-108.67
-98.555
-80.7741
-60.5484
-39.4424
-20.455
-4.99933
5.7581
11.9862
14.3828
13.9705
11.7151
8.59521
5.12881
1.62914
8.06673
-51.5759