/*--------------------------------*- C++ -*----------------------------------*\
| =========                 |                                                 |
| \\      /  F ield         | OpenFOAM: The Open Source CFD Toolbox           |
|  \\    /   O peration     | Version:  2306                                  |
|   \\  /    A nd           | Website:  www.openfoam.com                      |
|    \\/     M anipulation  |                                                 |
\*---------------------------------------------------------------------------*/
FoamFile
{
    version     2.0;
    format      ascii;
    arch        "LSB;label=32;scalar=64";
    class       surfaceScalarField;
    location    "0.45";
    object      phi;
}
// * * * * * * * * * * * * * * * * * * * * * * * * * * * * * * * * * * * * * //

dimensions      [0 3 -1 0 0 0 0];

oriented        oriented;

internalField   nonuniform List<scalar> 
8520
(
0.00992784
7.21557e-05
0.00978962
0.000138227
0.00962952
0.000160102
0.00946826
0.000161258
0.00930944
0.000158818
0.00914914
0.000160297
0.00898638
0.000162766
0.00882095
0.000165429
0.00865369
0.000167253
0.00848561
0.000168086
0.0083179
0.000167711
0.00815107
0.000166829
0.00798557
0.000165502
0.00782133
0.000164242
0.00765851
0.000162812
0.00749709
0.000161426
0.00733716
0.000159923
0.00717884
0.00015832
0.00702217
0.000156679
0.00686733
0.000154834
0.00671426
0.000153067
0.00656326
0.000151003
0.00641414
0.000149121
0.00626721
0.000146932
0.0061223
0.000144913
0.00597959
0.000142706
0.00583908
0.000140512
0.00570071
0.00013837
0.00556465
0.000136053
0.00543069
0.000133967
0.00529912
0.00013157
0.00516952
0.000129593
0.00504222
0.000127302
0.00491671
0.000125516
0.00479329
0.000123419
0.00467143
0.000121855
0.00455126
0.000120168
0.00443235
0.00011891
0.00431455
0.000117804
0.00419749
0.000117063
0.00408086
0.00011663
0.00396423
0.000116631
0.00384726
0.00011697
0.00372929
0.000117968
0.00361001
0.000119279
0.00348842
0.000121589
0.00336433
0.000124094
0.00323631
0.000128022
0.00310428
0.000132022
0.0029665
0.000137787
0.00282285
0.000143647
0.0026714
0.00015145
0.00251198
0.000159419
0.00234252
0.00016946
0.00216292
0.000179604
0.00197102
0.000191897
0.00176705
0.000203972
0.00154894
0.000218111
0.00131769
0.000231249
0.0010716
0.000246088
0.000813369
0.000258231
0.000542604
0.000270765
0.000267379
0.000275225
-1.7071e-06
0.000269086
-0.000245779
0.000244072
-0.000455458
0.000209679
-0.00060445
0.000148992
-0.000678805
7.43549e-05
-0.000656076
-2.27292e-05
-0.000532308
-0.000123768
-0.000300089
-0.000232219
-2.0879e-05
-0.00027921
0.000215991
-0.00023687
0.000315973
-9.99817e-05
2.11993e-05
0.000294774
-0.000443549
0.000464749
-0.000287187
-0.000156362
0.000107403
-0.00039459
0.000152317
-4.49138e-05
0.000169092
-1.67751e-05
0.0100357
3.64818e-05
0.0100798
9.40643e-05
0.0101108
0.000129139
0.0101272
0.000144853
0.0101357
0.000150279
0.0101431
0.00015297
0.0101493
0.000156487
0.0101532
0.000161623
0.0101537
0.000166741
0.0101502
0.000171584
0.0101431
0.000174829
0.0101323
0.000177569
0.0101189
0.00017892
0.0101027
0.00018044
0.0100844
0.000181098
0.0100637
0.000182179
0.0100409
0.000182662
0.0100159
0.000183377
0.00998881
0.000183726
0.00995969
0.000183961
0.00992854
0.000184212
0.00989564
0.000183901
0.00986064
0.000184124
0.0098242
0.000183375
0.00978561
0.000183502
0.00974574
0.00018258
0.00970381
0.00018244
0.00966057
0.000181608
0.00961547
0.000181155
0.00956894
0.000180493
0.00952068
0.000179828
0.00947083
0.000179443
0.00941938
0.000178751
0.00936617
0.000178734
0.0093113
0.000178281
0.0092546
0.000178562
0.0091959
0.000178868
0.00913543
0.000179372
0.00907238
0.000180855
0.00900754
0.000181907
0.00893934
0.000184833
0.00886917
0.000186795
0.00879495
0.000191195
0.00871826
0.000194651
0.00863674
0.000200803
0.00855185
0.000206479
0.00846137
0.000214574
0.00836614
0.000223246
0.00826444
0.000233728
0.00815633
0.000245896
0.00804039
0.000259584
0.00791626
0.000275581
0.00778244
0.000293238
0.00763838
0.000313516
0.00748238
0.000335608
0.00731382
0.000360454
0.00713071
0.000387083
0.00693271
0.000416114
0.00671746
0.000446501
0.00648556
0.000477981
0.00623451
0.000509288
0.00596681
0.000538467
0.00567851
0.000563522
0.00536917
0.000578428
0.00503882
0.000574421
0.00468089
0.000567601
0.00427994
0.000549943
0.00382813
0.000526165
0.00330282
0.000502587
0.00268197
0.000497077
0.00191786
0.000531889
0.0010471
0.000591552
0.000199688
0.000610544
-0.000367181
0.000466887
-0.000503628
0.000431222
-0.000315908
0.000277028
-0.000322986
-0.000149284
-0.000375276
-0.0003423
-0.000289345
-0.000130844
0.000151039
-0.000271292
0.0100141
2.23586e-05
0.0100441
6.41286e-05
0.0100777
9.54697e-05
0.0101074
0.000115226
0.0101313
0.000126324
0.0101522
0.000132046
0.010173
0.000135736
0.010195
0.000139591
0.0102179
0.000143858
0.0102408
0.000148661
0.0102631
0.00015256
0.0102842
0.000156415
0.0103045
0.00015871
0.0103236
0.00016126
0.0103423
0.000162466
0.0103601
0.000164344
0.0103775
0.000165264
0.0103941
0.00016676
0.0104101
0.00016775
0.0104253
0.000168753
0.0104396
0.00016994
0.0104532
0.000170281
0.0104656
0.000171758
0.0104774
0.000171521
0.0104878
0.000173147
0.0104976
0.000172709
0.0105059
0.000174198
0.0105135
0.000173961
0.0105195
0.000175146
0.0105247
0.000175317
0.0105283
0.000176225
0.0105307
0.00017705
0.0105318
0.000177684
0.0105311
0.000179426
0.0105294
0.000179962
0.0105254
0.000182612
0.0105205
0.000183713
0.0105129
0.000187007
0.0105043
0.000189448
0.0104928
0.000193362
0.01048
0.000197686
0.0104644
0.000202408
0.0104464
0.000209107
0.0104261
0.000215015
0.0104024
0.000224519
0.0103763
0.000232526
0.010346
0.000244852
0.010313
0.000256245
0.0102752
0.000271612
0.0102338
0.000287239
0.0101868
0.000306606
0.0101355
0.000326899
0.0100774
0.000351284
0.0100141
0.000376889
0.0099427
0.000406965
0.00986479
0.000438369
0.00977742
0.000474448
0.00968196
0.000511579
0.00957576
0.000552696
0.00945912
0.000594622
0.00933071
0.000637696
0.00918826
0.000680923
0.00903127
0.000720511
0.00885273
0.00075696
0.00864195
0.000785201
0.00839718
0.000812376
0.00810814
0.00083898
0.00777052
0.000863792
0.00737654
0.000896564
0.00693198
0.000941637
0.00645311
0.00101076
0.00595927
0.00108539
0.00540677
0.00116305
0.00468048
0.00119317
0.00391654
0.00119516
0.00303706
0.00115651
0.00185102
0.00103676
0.000539186
0.000969537
-0.000279245
0.000687587
0.000417234
-0.00054544
0.0100069
1.54536e-05
0.0100268
4.42679e-05
0.0100518
7.04189e-05
0.010077
9.00383e-05
0.0101003
0.000103071
0.0101223
0.000109995
0.010143
0.000115
0.0101643
0.000118374
0.0101863
0.000121817
0.0102095
0.000125438
0.0102331
0.000128938
0.0102569
0.000132675
0.0102805
0.000135076
0.0103037
0.00013806
0.010327
0.000139141
0.0103498
0.000141555
0.0103732
0.000141945
0.0103958
0.000144115
0.0104191
0.000144397
0.0104416
0.000146288
0.0104647
0.000146806
0.0104869
0.000148107
0.0105095
0.000149184
0.0105313
0.000149704
0.0105531
0.000151409
0.0105744
0.00015138
0.0105951
0.000153448
0.0106157
0.00015339
0.0106354
0.000155454
0.0106549
0.000155821
0.0106734
0.000157729
0.0106915
0.000158941
0.0107087
0.000160509
0.0107251
0.000163038
0.0107408
0.000164219
0.0107551
0.000168272
0.0107692
0.000169665
0.0107813
0.000174881
0.0107933
0.000177479
0.0108031
0.000183595
0.0108127
0.000188071
0.0108198
0.000195239
0.0108266
0.000202293
0.0108311
0.00021055
0.0108345
0.000221175
0.0108361
0.000230837
0.0108356
0.000245431
0.0108339
0.000257889
0.0108293
0.000276202
0.0108236
0.000292951
0.0108147
0.000315561
0.0108045
0.000337114
0.0107905
0.000365222
0.0107751
0.000392277
0.0107559
0.00042622
0.0107343
0.000459933
0.010709
0.000499755
0.0106806
0.000539986
0.0106474
0.000585889
0.0106106
0.000631403
0.0105667
0.000681654
0.0105161
0.000731508
0.010455
0.000781621
0.0103761
0.000835809
0.0102787
0.000882602
0.0101495
0.000941588
0.0100002
0.000988272
0.00980873
0.00105527
0.00958979
0.0011155
0.00933192
0.00119951
0.00905545
0.00128723
0.00874308
0.00139776
0.0083887
0.00151743
0.00794445
0.00163743
0.00743025
0.00170935
0.00681998
0.00176678
0.00611227
0.00174446
0.00533976
0.00174205
0.00425337
0.00177398
0.00172995
0.00294065
0.0100044
1.10954e-05
0.0100166
3.20307e-05
0.010035
5.19987e-05
0.0100563
6.87992e-05
0.010078
8.12987e-05
0.0100989
8.91711e-05
0.0101192
9.46212e-05
0.0101396
9.79767e-05
0.0101606
0.000100802
0.0101825
0.000103593
0.010205
0.000106384
0.010228
0.0001097
0.0102515
0.000111639
0.0102746
0.000114934
0.0102982
0.000115517
0.0103211
0.000118659
0.0103449
0.000118143
0.0103678
0.000121257
0.0103918
0.000120361
0.0104147
0.000123377
0.0104388
0.000122675
0.0104617
0.000125217
0.0104857
0.000125238
0.0105085
0.000126856
0.0105319
0.000128
0.0105548
0.000128524
0.0105773
0.000130898
0.0106002
0.000130545
0.0106217
0.000133943
0.0106443
0.000133173
0.0106647
0.000137384
0.0106869
0.000136733
0.010706
0.000141393
0.0107274
0.000141619
0.0107454
0.00014622
0.0107655
0.000148202
0.0107826
0.000152581
0.0108009
0.000156577
0.010817
0.000161374
0.0108335
0.000167109
0.0108483
0.000173237
0.0108629
0.00018067
0.0108763
0.000188844
0.0108888
0.000198056
0.0109006
0.000209415
0.0109113
0.000220097
0.0109208
0.000235965
0.0109301
0.000248615
0.0109373
0.000268922
0.0109445
0.000285745
0.0109505
0.000309635
0.0109552
0.00033236
0.0109598
0.000360646
0.0109629
0.00038922
0.0109657
0.000423385
0.0109673
0.000458305
0.0109692
0.000497896
0.0109682
0.000540948
0.0109697
0.000584408
0.0109646
0.000636557
0.010963
0.000683215
0.010951
0.000743534
0.010938
0.000794589
0.0109122
0.000861568
0.0108771
0.000917693
0.0108258
0.00099293
0.0107596
0.00105444
0.0106696
0.00114528
0.0105648
0.00122029
0.0104317
0.00133266
0.010285
0.00143392
0.0101056
0.00157717
0.0099137
0.00170932
0.00968591
0.00186522
0.00940611
0.00198915
0.00905746
0.00211543
0.00859754
0.00220438
0.00800776
0.00233183
0.00734503
0.0024367
0.00254552
0.00652947
0.0100031
7.95954e-06
0.0100118
2.33737e-05
0.0100256
3.81434e-05
0.0100431
5.1352e-05
0.0100625
6.18712e-05
0.0100824
6.9341e-05
0.0101024
7.45763e-05
0.0101224
7.79602e-05
0.0101427
8.05257e-05
0.0101637
8.26227e-05
0.0101852
8.47975e-05
0.0102077
8.72078e-05
0.0102303
8.9117e-05
0.0102535
9.17308e-05
0.0102763
9.26502e-05
0.0102997
9.53064e-05
0.0103227
9.50911e-05
0.0103461
9.79061e-05
0.0103694
9.70403e-05
0.0103927
0.000100041
0.0104163
9.90929e-05
0.0104395
0.000102016
0.0104632
0.000101549
0.0104862
0.00010389
0.0105097
0.000104455
0.0105325
0.000105794
0.0105556
0.000107796
0.0105781
0.000107991
0.0106005
0.000111565
0.0106228
0.000110827
0.0106443
0.000115951
0.0106663
0.000114706
0.0106867
0.000121021
0.0107082
0.000120112
0.0107275
0.000126921
0.0107481
0.000127589
0.0107665
0.000134137
0.0107857
0.000137377
0.0108036
0.000143467
0.010821
0.000149776
0.0108385
0.000155719
0.0108537
0.000165454
0.0108709
0.000171655
0.0108838
0.000185125
0.0109007
0.000192535
0.0109115
0.000209256
0.0109276
0.000219907
0.0109374
0.00023884
0.0109517
0.000254641
0.0109614
0.000276019
0.0109739
0.000297111
0.0109834
0.00032283
0.0109953
0.00034877
0.0110045
0.00038002
0.011016
0.000411886
0.0110262
0.000448155
0.0110363
0.000487727
0.0110489
0.00052839
0.0110564
0.000576908
0.011071
0.000621954
0.0110746
0.000679644
0.0110869
0.000731176
0.0110846
0.000796895
0.0110896
0.000856609
0.0110755
0.000931769
0.0110677
0.00100069
0.0110344
0.00108779
0.0110044
0.00117521
0.0109506
0.00127409
0.0108906
0.00139276
0.0108155
0.00150894
0.0107284
0.00166432
0.0106373
0.00180042
0.0105137
0.00198877
0.0103831
0.0021198
0.0101557
0.00234278
0.00991846
0.00244165
0.00954653
0.00270376
0.00922016
0.00276307
0.00301209
0.00875359
0.0100025
5.45555e-06
0.0100093
1.65947e-05
0.0100205
2.69739e-05
0.0100353
3.65439e-05
0.0100524
4.47259e-05
0.0100711
5.06842e-05
0.0100903
5.53431e-05
0.0101102
5.80842e-05
0.01013
6.06828e-05
0.0101508
6.18795e-05
0.0101715
6.40228e-05
0.0101937
6.49932e-05
0.0102154
6.7415e-05
0.0102386
6.85322e-05
0.0102609
7.04467e-05
0.0102845
7.16738e-05
0.010307
7.25597e-05
0.0103307
7.42528e-05
0.0103536
7.41447e-05
0.0103771
7.65218e-05
0.0104004
7.57969e-05
0.0104236
7.87871e-05
0.0104473
7.78872e-05
0.01047
8.11681e-05
0.010494
8.04838e-05
0.010516
8.37704e-05
0.0105402
8.36232e-05
0.0105614
8.66996e-05
0.0105855
8.74915e-05
0.0106062
9.01283e-05
0.0106297
9.24612e-05
0.0106501
9.43295e-05
0.0106725
9.85671e-05
0.0106927
9.99344e-05
0.0107139
0.000105734
0.0107338
0.000107736
0.0107537
0.000114231
0.010773
0.000118017
0.0107916
0.000124862
0.0108103
0.000131058
0.0108277
0.000138323
0.0108455
0.000147724
0.0108621
0.000155034
0.0108783
0.000168916
0.0108947
0.000176171
0.0109091
0.000194816
0.0109254
0.000203632
0.0109384
0.000225782
0.0109542
0.000238836
0.0109671
0.000263205
0.0109815
0.000282622
0.0109957
0.000308717
0.0110082
0.000336241
0.0110247
0.000363482
0.0110353
0.000401288
0.0110548
0.000428659
0.0110639
0.000478691
0.0110858
0.000506399
0.0110939
0.000568834
0.0111168
0.000599066
0.0111231
0.000673324
0.0111454
0.000708957
0.0111487
0.000793504
0.0111655
0.000839821
0.0111651
0.000932246
0.0111711
0.000994621
0.0111601
0.00109879
0.0111543
0.001181
0.0111282
0.00130019
0.0111043
0.00141665
0.0110718
0.00154152
0.011022
0.00171407
0.0109899
0.00183253
0.0109107
0.00206796
0.0108455
0.002185
0.0107278
0.00246049
0.0105839
0.00258554
0.0104244
0.00286331
0.0101951
0.00299234
0.00325127
0.00995593
0.010002
3.44962e-06
0.0100079
1.06795e-05
0.0100174
1.75039e-05
0.0100306
2.33576e-05
0.0100459
2.94067e-05
0.0100636
3.29643e-05
0.0100819
3.7055e-05
0.0101017
3.83256e-05
0.0101212
4.11483e-05
0.0101419
4.11803e-05
0.0101624
4.35509e-05
0.0101841
4.32614e-05
0.0102056
4.59231e-05
0.0102283
4.58107e-05
0.0102505
4.82523e-05
0.0102738
4.8358e-05
0.0102965
4.99048e-05
0.0103199
5.0822e-05
0.010343
5.10378e-05
0.0103662
5.33273e-05
0.0103899
5.21258e-05
0.0104126
5.60435e-05
0.0104368
5.36829e-05
0.010459
5.89986e-05
0.0104836
5.58807e-05
0.0105051
6.22705e-05
0.01053
5.87469e-05
0.0105507
6.59304e-05
0.0105757
6.25857e-05
0.0105958
6.99995e-05
0.0106203
6.79678e-05
0.0106401
7.4493e-05
0.0106636
7.50665e-05
0.0106835
8.00479e-05
0.0107056
8.36614e-05
0.0107256
8.77166e-05
0.0107462
9.36718e-05
0.0107662
9.79966e-05
0.0107852
0.000105851
0.0108052
0.000110996
0.0108225
0.000121105
0.0108428
0.000127418
0.0108582
0.000139624
0.0108785
0.000148628
0.0108928
0.000161853
0.0109123
0.00017528
0.0109265
0.00018948
0.0109449
0.000207338
0.0109594
0.000224397
0.0109769
0.000245622
0.010992
0.000267542
0.0110089
0.000291814
0.0110253
0.000319812
0.0110414
0.0003474
0.0110603
0.000382447
0.0110753
0.000413608
0.0110967
0.000457311
0.0111116
0.000491544
0.0111341
0.000546307
0.0111491
0.000584031
0.0111721
0.000650389
0.0111864
0.000694633
0.0112078
0.000772104
0.0112206
0.00082696
0.0112381
0.000914772
0.0112438
0.000988958
0.0112594
0.00108318
0.0112508
0.00118964
0.0112621
0.00128882
0.0112434
0.00143535
0.0112386
0.00154636
0.0112207
0.00173193
0.0111893
0.00186391
0.0111678
0.00208946
0.0111087
0.0022441
0.0110624
0.00250684
0.0109712
0.00267672
0.010886
0.00294852
0.0107362
0.00314215
0.00339867
0.0105888
0.0100016
1.8188e-06
0.0100072
5.078e-06
0.0100157
9.02515e-06
0.0100278
1.12193e-05
0.010042
1.52095e-05
0.010059
1.59939e-05
0.0100767
1.93726e-05
0.0100962
1.88489e-05
0.0101156
2.17182e-05
0.0101362
2.05952e-05
0.0101567
2.30671e-05
0.010178
2.1915e-05
0.0101995
2.44083e-05
0.0102217
2.36096e-05
0.0102442
2.57994e-05
0.010267
2.55633e-05
0.0102901
2.67964e-05
0.010313
2.78735e-05
0.0103367
2.74241e-05
0.0103595
3.05085e-05
0.0103835
2.81082e-05
0.0104061
3.33922e-05
0.0104303
2.94825e-05
0.0104529
3.644e-05
0.010477
3.17401e-05
0.0104995
3.98383e-05
0.0105235
3.4704e-05
0.0105456
4.3898e-05
0.0105695
3.85896e-05
0.010591
4.85706e-05
0.0106148
4.41885e-05
0.0106358
5.34454e-05
0.0106588
5.20538e-05
0.0106799
5.89838e-05
0.0107017
6.18767e-05
0.0107228
6.65345e-05
0.0107434
7.3098e-05
0.0107644
7.69985e-05
0.0107841
8.62172e-05
0.0108046
9.04702e-05
0.0108234
0.000102301
0.0108435
0.000107279
0.0108613
0.000121808
0.0108814
0.000128561
0.0108982
0.000145072
0.0109182
0.000155229
0.0109345
0.000173167
0.0109541
0.000187743
0.010971
0.000207492
0.0109897
0.000227016
0.0110082
0.000248982
0.0110257
0.000274333
0.0110463
0.000299165
0.0110636
0.000330188
0.0110858
0.000360183
0.0111038
0.000395652
0.0111276
0.000433469
0.0111465
0.000472699
0.0111713
0.000521442
0.0111923
0.000563092
0.0112166
0.000626033
0.0112388
0.000672427
0.0112643
0.000746669
0.0112832
0.000808047
0.0113094
0.000888552
0.0113257
0.000972692
0.0113445
0.0010643
0.0113632
0.00117093
0.0113682
0.00128386
0.0113871
0.00141644
0.0113811
0.00155241
0.01139
0.001723
0.0113729
0.00188095
0.0113702
0.00209224
0.0113293
0.00228498
0.0113166
0.00251951
0.0112463
0.00274703
0.0111888
0.00300607
0.0110919
0.00323905
0.00352681
0.0109637
0.0100016
2.00728e-07
0.0100068
-1.07892e-07
0.0100151
6.98667e-07
0.0100265
-1.9347e-07
0.0100404
1.36179e-06
0.0100568
-3.78182e-07
0.0100743
1.85065e-06
0.0100935
-3.32811e-07
0.0101129
2.24823e-06
0.0101334
1.39824e-07
0.010154
2.43606e-06
0.0101751
8.5201e-07
0.0101968
2.70812e-06
0.0102186
1.78027e-06
0.0102413
3.13541e-06
0.0102639
2.96785e-06
0.0102871
3.6189e-06
0.0103101
4.79507e-06
0.0103336
3.97749e-06
0.0103568
7.26187e-06
0.0103805
4.46083e-06
0.0104038
1.01006e-05
0.0104274
5.8231e-06
0.0104509
1.29782e-05
0.0104742
8.40079e-06
0.010498
1.60713e-05
0.0105208
1.18478e-05
0.0105447
2.00941e-05
0.0105673
1.59827e-05
0.0105906
2.52715e-05
0.0106132
2.15064e-05
0.0106358
3.08543e-05
0.0106583
2.96229e-05
0.0106806
3.66636e-05
0.0107021
4.03569e-05
0.0107245
4.41086e-05
0.010745
5.25897e-05
0.0107672
5.48206e-05
0.0107872
6.62325e-05
0.0108087
6.90002e-05
0.0108284
8.26174e-05
0.0108492
8.64463e-05
0.0108686
0.000102372
0.0108888
0.000108418
0.0109084
0.00012544
0.0109278
0.000135817
0.0109476
0.000153354
0.0109674
0.000167979
0.0109863
0.000188598
0.0110083
0.000204975
0.0110253
0.000232
0.0110506
0.00024907
0.0110664
0.000283347
0.0110942
0.000302363
0.0111105
0.000343921
0.0111402
0.000365965
0.0111581
0.000415551
0.0111885
0.000442264
0.0112105
0.000499439
0.0112396
0.000534008
0.0112661
0.000599491
0.0112962
0.000642401
0.011322
0.000720857
0.0113568
0.00077323
0.0113795
0.000865799
0.0114148
0.00093739
0.0114401
0.00103909
0.0114677
0.0011433
0.0114954
0.00125611
0.0115189
0.00139297
0.0115348
0.0015365
0.011561
0.00169682
0.0115581
0.00188389
0.0115712
0.00207909
0.0115609
0.00229526
0.0115444
0.00253606
0.0115076
0.0027838
0.0114625
0.00305121
0.0113655
0.00333606
0.00361723
0.011275
0.0100017
-1.51256e-06
0.0100067
-5.12141e-06
0.0100152
-7.7885e-06
0.0100265
-1.14535e-05
0.0100405
-1.26886e-05
0.0100568
-1.66078e-05
0.0100744
-1.57888e-05
0.0100935
-1.94509e-05
0.0101131
-1.73083e-05
0.0101335
-2.03045e-05
0.0101542
-1.82461e-05
0.0101752
-2.01936e-05
0.010197
-1.9082e-05
0.0102188
-2.00093e-05
0.0102416
-1.96294e-05
0.0102642
-1.96504e-05
0.0102874
-1.96019e-05
0.0103107
-1.8454e-05
0.0103341
-1.94193e-05
0.0103576
-1.62577e-05
0.0103812
-1.91578e-05
0.0104047
-1.34213e-05
0.0104285
-1.79631e-05
0.0104521
-1.06051e-05
0.0104757
-1.52075e-05
0.0104996
-7.84465e-06
0.0105227
-1.12114e-05
0.0105469
-4.09825e-06
0.0105695
-6.66101e-06
0.0105934
1.37128e-06
0.0106163
-1.32647e-06
0.0106392
7.88389e-06
0.0106624
6.45317e-06
0.0106845
1.45312e-05
0.0107075
1.73944e-05
0.0107294
2.22194e-05
0.0107515
3.04257e-05
0.0107735
3.29094e-05
0.0107949
4.47792e-05
0.0108166
4.73543e-05
0.0108375
6.16272e-05
0.0108592
6.48273e-05
0.0108792
8.23182e-05
0.0109016
8.60043e-05
0.0109205
0.000106569
0.0109438
0.00011253
0.0109624
0.000134726
0.0109858
0.000144632
0.0110054
0.000168921
0.0110287
0.000181761
0.0110498
0.000210877
0.0110735
0.000225326
0.0110962
0.000260639
0.0111209
0.000277719
0.0111463
0.000318529
0.0111711
0.000341134
0.0112005
0.00038619
0.0112263
0.000416453
0.0112581
0.000467597
0.0112876
0.000504543
0.0113214
0.000565635
0.0113525
0.000611282
0.0113925
0.000680887
0.0114217
0.000744033
0.0114676
0.00081995
0.0114992
0.000905712
0.0115423
0.000996016
0.0115823
0.0011033
0.0116204
0.001218
0.0116598
0.0013536
0.0117002
0.00149611
0.0117293
0.00166774
0.011761
0.00185217
0.0117867
0.00205339
0.0117917
0.00229023
0.0117939
0.00253384
0.0117806
0.00279716
0.0117281
0.0031037
0.0116646
0.0033995
0.00371597
0.0115659
0.0100019
-3.36359e-06
0.010007
-1.02644e-05
0.010016
-1.68205e-05
0.0100275
-2.29577e-05
0.0100425
-2.76988e-05
0.0100589
-3.29261e-05
0.0100772
-3.4102e-05
0.0100962
-3.85115e-05
0.0101161
-3.7139e-05
0.0101365
-4.07531e-05
0.0101572
-3.89722e-05
0.0101785
-4.14108e-05
0.0102003
-4.09485e-05
0.0102223
-4.19744e-05
0.0102452
-4.25308e-05
0.0102679
-4.2357e-05
0.0102912
-4.29375e-05
0.0103146
-4.18648e-05
0.010338
-4.27921e-05
0.0103619
-4.01655e-05
0.0103854
-4.26061e-05
0.0104094
-3.74758e-05
0.0104331
-4.15982e-05
0.0104572
-3.471e-05
0.0104807
-3.87475e-05
0.0105052
-3.2346e-05
0.010528
-3.40288e-05
0.0105533
-2.93273e-05
0.0105752
-2.8577e-05
0.0106007
-2.42106e-05
0.0106224
-2.29736e-05
0.0106474
-1.71155e-05
0.0106695
-1.56012e-05
0.0106935
-9.51743e-06
0.0107157
-4.82678e-06
0.0107394
-1.41396e-06
0.010761
8.82003e-06
0.0107848
9.06129e-06
0.0108055
2.40502e-05
0.0108295
2.3378e-05
0.0108499
4.12769e-05
0.0108738
4.09249e-05
0.0108937
6.23803e-05
0.010918
6.17051e-05
0.0109377
8.68909e-05
0.0109619
8.82649e-05
0.0109831
0.000113533
0.0110056
0.000122214
0.0110306
0.000143867
0.0110504
0.000161938
0.0110794
0.000181872
0.0110987
0.000206094
0.0111298
0.000229496
0.0111514
0.000256143
0.0111829
0.000287013
0.0112089
0.000315151
0.0112414
0.000353682
0.0112702
0.000387642
0.0113078
0.000429998
0.0113373
0.000475027
0.0113799
0.000523039
0.0114154
0.0005758
0.0114565
0.000639748
0.0115037
0.000696884
0.0115435
0.000780139
0.0115973
0.000851914
0.0116443
0.000949001
0.0116978
0.00104979
0.0117518
0.00116403
0.0118091
0.00129629
0.0118617
0.0014435
0.0119159
0.00161358
0.0119748
0.00179321
0.012005
0.00202325
0.0120496
0.00224556
0.0120742
0.00250929
0.012054
0.00281739
0.0120512
0.00310649
0.011982
0.00346868
0.00381831
0.0118797
0.0100021
-5.46414e-06
0.0100076
-1.57285e-05
0.0100178
-2.70226e-05
0.0100302
-3.53704e-05
0.0100467
-4.4208e-05
0.0100634
-4.96197e-05
0.0100828
-5.35442e-05
0.0101017
-5.73928e-05
0.0101221
-5.75662e-05
0.0101424
-6.0991e-05
0.0101634
-6.00209e-05
0.0101849
-6.28807e-05
0.0102069
-6.29529e-05
0.0102294
-6.45261e-05
0.0102522
-6.52444e-05
0.0102755
-6.57127e-05
0.0102985
-6.5913e-05
0.0103226
-6.59522e-05
0.0103455
-6.57602e-05
0.0103702
-6.48042e-05
0.0103932
-6.56309e-05
0.0104181
-6.23581e-05
0.0104413
-6.48206e-05
0.0104662
-5.96354e-05
0.0104895
-6.20445e-05
0.0105147
-5.74614e-05
0.0105375
-5.6883e-05
0.0105632
-5.50614e-05
0.0105852
-5.05786e-05
0.0106116
-5.05475e-05
0.0106331
-4.44865e-05
0.0106592
-4.318e-05
0.0106811
-3.75443e-05
0.0107061
-3.44785e-05
0.0107286
-2.74115e-05
0.0107527
-2.54822e-05
0.0107756
-1.40482e-05
0.0107989
-1.42332e-05
0.0108223
5.97116e-07
0.0108441
1.63025e-06
0.0108695
1.5806e-05
0.0108886
2.18308e-05
0.0109163
3.47128e-05
0.0109344
4.35878e-05
0.010962
5.93195e-05
0.0109821
6.81158e-05
0.0110075
8.81478e-05
0.0110312
9.85317e-05
0.0110553
0.000119756
0.011081
0.000136277
0.0111064
0.000156459
0.0111333
0.000179202
0.0111605
0.000202272
0.0111898
0.000226821
0.0112191
0.000257789
0.0112512
0.000283027
0.0112834
0.000321456
0.0113194
0.000351618
0.0113545
0.000394962
0.0113958
0.000433681
0.0114353
0.000483543
0.0114804
0.000530721
0.0115283
0.000591806
0.0115766
0.000648657
0.0116322
0.00072453
0.0116893
0.000794803
0.0117497
0.000888599
0.0118151
0.000984379
0.011888
0.00109114
0.0119539
0.00123037
0.0120335
0.00136393
0.012116
0.00153104
0.0121738
0.00173546
0.0122647
0.00193235
0.0123194
0.00219084
0.012355
0.00247365
0.0124021
0.00277032
0.0123859
0.0031227
0.0123483
0.00350629
0.003903
0.0122636
0.0100023
-7.75986e-06
0.010009
-2.24691e-05
0.0100206
-3.85867e-05
0.0100351
-4.98568e-05
0.0100531
-6.21953e-05
0.0100711
-6.76156e-05
0.0100912
-7.36891e-05
0.0101105
-7.66437e-05
0.0101311
-7.81866e-05
0.0101515
-8.13971e-05
0.0101729
-8.141e-05
0.0101949
-8.49414e-05
0.0102172
-8.5228e-05
0.0102405
-8.77925e-05
0.0102631
-8.78297e-05
0.0102873
-8.98985e-05
0.0103098
-8.84325e-05
0.0103348
-9.09324e-05
0.0103572
-8.82092e-05
0.0103827
-9.03395e-05
0.0104054
-8.82431e-05
0.010431
-8.80054e-05
0.0104541
-8.79332e-05
0.0104794
-8.49478e-05
0.0105032
-8.5799e-05
0.010528
-8.22977e-05
0.0105522
-8.10353e-05
0.0105768
-7.97198e-05
0.010601
-7.47627e-05
0.0106256
-7.51207e-05
0.01065
-6.89142e-05
0.0106738
-6.69352e-05
0.0106993
-6.30955e-05
0.0107212
-5.64088e-05
0.0107485
-5.47057e-05
0.0107685
-4.53976e-05
0.0107972
-4.27449e-05
0.0108157
-3.28021e-05
0.0108451
-2.87928e-05
0.0108631
-1.63908e-05
0.0108926
-1.36782e-05
0.0109106
3.89297e-06
0.0109404
4.90748e-06
0.0109587
2.52484e-05
0.0109876
3.03839e-05
0.0110091
4.66546e-05
0.0110346
6.26874e-05
0.011062
7.11367e-05
0.011084
9.77494e-05
0.0111145
0.000105705
0.0111395
0.000131517
0.0111677
0.000150944
0.0111995
0.000170522
0.0112272
0.000199097
0.0112615
0.000223507
0.011295
0.000249546
0.0113298
0.000286667
0.0113683
0.000313087
0.0114095
0.000353736
0.0114489
0.000394252
0.0114999
0.000432621
0.0115438
0.000486793
0.0116001
0.000535451
0.011656
0.000592829
0.0117153
0.000665159
0.0117875
0.00072264
0.0118487
0.000827401
0.0119435
0.000889545
0.0120063
0.00102841
0.0121169
0.00111976
0.0122037
0.00127712
0.0122994
0.00143537
0.0124173
0.0016175
0.0125099
0.00183973
0.0126
0.00210079
0.0127064
0.00236724
0.0127437
0.00273298
0.012787
0.00307944
0.0127765
0.00351682
0.00398137
0.0126981
0.0100028
-1.05243e-05
0.0100119
-3.16127e-05
0.0100256
-5.22846e-05
0.0100432
-6.74879e-05
0.0100629
-8.18129e-05
0.0100827
-8.74207e-05
0.0101031
-9.41046e-05
0.010123
-9.65252e-05
0.0101437
-9.89622e-05
0.0101645
-0.000102179
0.0101868
-0.000103745
0.0102091
-0.000107232
0.0102325
-0.000108579
0.0102558
-0.000111077
0.0102791
-0.00011118
0.0103033
-0.000114103
0.0103262
-0.000111334
0.0103514
-0.000116081
0.0103741
-0.000110965
0.0103998
-0.000116037
0.0104229
-0.000111361
0.0104486
-0.000113626
0.0104724
-0.000111807
0.0104975
-0.000110026
0.0105222
-0.000110511
0.0105467
-0.000106803
0.0105719
-0.000106241
0.0105963
-0.000104111
0.0106215
-9.99248e-05
0.0106461
-9.97271e-05
0.0106711
-9.38866e-05
0.0106957
-9.1571e-05
0.0107206
-8.79527e-05
0.0107453
-8.11031e-05
0.0107696
-7.90486e-05
0.0107949
-7.07244e-05
0.0108181
-6.58604e-05
0.0108447
-5.94401e-05
0.0108661
-5.01995e-05
0.0108943
-4.46293e-05
0.0109146
-3.39503e-05
0.0109428
-2.43349e-05
0.0109655
-1.77351e-05
0.0109896
1.11032e-06
0.0110184
1.60996e-06
0.0110381
2.69811e-05
0.0110705
3.0245e-05
0.0110921
4.959e-05
0.011121
6.88103e-05
0.0111504
7.63329e-05
0.0111752
0.000106647
0.0112096
0.000116587
0.0112373
0.00014276
0.0112716
0.000164815
0.011305
0.000190102
0.0113426
0.000211989
0.0113771
0.000252139
0.0114243
0.000265868
0.0114586
0.000319513
0.0115152
0.000337569
0.0115555
0.000392361
0.0116165
0.000425764
0.0116698
0.000482183
0.0117356
0.000527029
0.011802
0.000598782
0.0118779
0.000646735
0.0119614
0.000743862
0.0120437
0.00080727
0.0121556
0.000916517
0.0122528
0.00102255
0.012367
0.0011629
0.0125192
0.00128321
0.0126215
0.00151519
0.0127823
0.00167889
0.0129218
0.00196128
0.0130406
0.00224852
0.0131583
0.00261521
0.0132445
0.00299327
0.0132686
0.00349272
0.00402327
0.0132267
0.0100042
-1.47351e-05
0.0100168
-4.41749e-05
0.0100352
-7.0685e-05
0.0100564
-8.87594e-05
0.0100785
-0.000103834
0.0100992
-0.00010813
0.0101201
-0.000115043
0.0101402
-0.00011661
0.0101621
-0.000120815
0.0101833
-0.00012345
0.0102072
-0.000127672
0.0102294
-0.000129367
0.0102545
-0.000133705
0.010277
-0.000133527
0.010302
-0.000136208
0.0103251
-0.000137186
0.0103495
-0.000135777
0.0103737
-0.000140265
0.0103978
-0.000135095
0.0104228
-0.000140996
0.0104471
-0.000135662
0.0104722
-0.00013874
0.010497
-0.000136585
0.0105219
-0.000134936
0.0105471
-0.000135728
0.0105719
-0.000131566
0.0105972
-0.000131537
0.0106222
-0.000129144
0.010647
-0.000124771
0.0106728
-0.000125432
0.0106967
-0.000117853
0.0107233
-0.000118194
0.010746
-0.000110599
0.010774
-0.000109072
0.0107949
-0.000100028
0.0108242
-9.99445e-05
0.0108442
-8.58634e-05
0.0108735
-8.88282e-05
0.0108936
-7.02628e-05
0.0109229
-7.39508e-05
0.0109427
-5.37215e-05
0.0109725
-5.41536e-05
0.0109932
-3.83677e-05
0.0110207
-2.64755e-05
0.011047
-2.46961e-05
0.0110693
4.74724e-06
0.0111021
-2.5506e-06
0.0111227
2.89963e-05
0.0111554
3.60625e-05
0.0111824
4.93647e-05
0.0112115
7.75091e-05
0.0112447
8.34494e-05
0.011276
0.000111422
0.0113091
0.000131713
0.0113486
0.000150571
0.0113819
0.000178721
0.0114273
0.000206753
0.0114675
0.000225637
0.0115155
0.000271573
0.0115636
0.000289376
0.0116237
0.000332288
0.0116671
0.00038238
0.0117567
0.000392626
0.0117896
0.000494129
0.0119037
0.000484655
0.0119566
0.000593857
0.012061
0.000639399
0.012168
0.000700271
0.0122674
0.000817185
0.0123952
0.000894674
0.0125519
0.0010062
0.0126755
0.00115968
0.0128728
0.00131783
0.0130426
0.00150908
0.0132436
0.00176033
0.0134237
0.00206843
0.0136054
0.00243349
0.0137551
0.00284356
0.0138587
0.00338914
0.00399833
0.0138836
0.0100073
-2.20384e-05
0.0100269
-6.37618e-05
0.0100522
-9.60317e-05
0.0100772
-0.000113743
0.0101007
-0.000127314
0.0101228
-0.000130253
0.0101438
-0.000136048
0.0101652
-0.000137957
0.0101877
-0.000143342
0.0102109
-0.000146609
0.0102354
-0.000152252
0.0102589
-0.000152832
0.0102838
-0.000158569
0.0103069
-0.000156689
0.0103312
-0.000160455
0.0103548
-0.000160826
0.0103783
-0.000159278
0.010403
-0.000164953
0.010426
-0.000158041
0.0104514
-0.00016642
0.010474
-0.000158261
0.0104998
-0.000164519
0.010522
-0.000158808
0.0105481
-0.000161034
0.0105698
-0.000157417
0.0105961
-0.000157871
0.0106174
-0.000152861
0.0106434
-0.000155191
0.0106648
-0.000146124
0.0106902
-0.000150805
0.0107116
-0.000139259
0.0107365
-0.000143097
0.0107572
-0.000131354
0.0107827
-0.000134547
0.0108018
-0.000119096
0.0108287
-0.000126842
0.0108457
-0.000102883
0.0108744