/*--------------------------------*- C++ -*----------------------------------*\
| =========                 |                                                 |
| \\      /  F ield         | OpenFOAM: The Open Source CFD Toolbox           |
|  \\    /   O peration     | Version:  2306                                  |
|   \\  /    A nd           | Website:  www.openfoam.com                      |
|    \\/     M anipulation  |                                                 |
\*---------------------------------------------------------------------------*/
FoamFile
{
    version     2.0;
    format      ascii;
    arch        "LSB;label=32;scalar=64";
    class       volVectorField;
    location    "0.45";
    object      U;
}
// * * * * * * * * * * * * * * * * * * * * * * * * * * * * * * * * * * * * * //

dimensions      [0 1 -1 0 0 0 0];

internalField   nonuniform List<vector> 
4400
(
(9.9018 0.0455 0)
(9.80627 0.098738 0)
(9.7001 0.120949 0)
(9.57015 0.125812 0)
(9.41821 0.124473 0)
(9.25215 0.12347 0)
(9.08064 0.12412 0)
(8.90818 0.1257 0)
(8.7373 0.126968 0)
(8.56777 0.127423 0)
(8.40015 0.126852 0)
(8.23331 0.125562 0)
(8.068 0.123752 0)
(7.90319 0.121759 0)
(7.74005 0.119648 0)
(7.57756 0.117549 0)
(7.41703 0.115427 0)
(7.25747 0.113259 0)
(7.10015 0.11107 0)
(6.94407 0.108759 0)
(6.79029 0.106474 0)
(6.638 0.104019 0)
(6.48808 0.101645 0)
(6.33989 0.099102 0)
(6.19405 0.09668 0)
(6.0501 0.0941104 0)
(5.9086 0.0916507 0)
(5.76899 0.0891205 0)
(5.63198 0.0866714 0)
(5.49668 0.0842156 0)
(5.36425 0.0818274 0)
(5.23323 0.0795032 0)
(5.10532 0.0772507 0)
(4.97831 0.0750679 0)
(4.85457 0.073006 0)
(4.73121 0.0710019 0)
(4.61106 0.0692558 0)
(4.49075 0.0675169 0)
(4.37332 0.0662078 0)
(4.25514 0.0648972 0)
(4.13925 0.0641688 0)
(4.0219 0.0634811 0)
(3.90612 0.0634607 0)
(3.78791 0.0635795 0)
(3.67047 0.0643731 0)
(3.5492 0.0654475 0)
(3.42782 0.0671583 0)
(3.30077 0.0693305 0)
(3.17258 0.0721159 0)
(3.03649 0.0754757 0)
(2.898 0.0795027 0)
(2.7491 0.0841037 0)
(2.59623 0.0894786 0)
(2.43027 0.0953062 0)
(2.25857 0.101943 0)
(2.07104 0.108738 0)
(1.87605 0.116217 0)
(1.6627 0.123214 0)
(1.44084 0.130472 0)
(1.19878 0.136029 0)
(0.948618 0.140677 0)
(0.677757 0.141181 0)
(0.400915 0.134115 0)
(0.123715 0.102823 0)
(-0.127989 0.0470938 0)
(-0.375629 -0.0359557 0)
(-0.551558 -0.127951 0)
(-0.668302 -0.237169 0)
(-0.676804 -0.359686 0)
(-0.614116 -0.498056 0)
(-0.413595 -0.620516 0)
(-0.160248 -0.702763 0)
(0.121504 -0.562528 0)
(0.275964 -0.209525 0)
(0.372351 0.480793 0)
(-0.340379 0.909047 0)
(-0.49194 0.30834 0)
(-0.0601676 -0.0820902 0)
(0.251764 -0.0965594 0)
(0.0522211 -0.208177 0)
(10.0003 0.061198 0)
(10.0317 0.137445 0)
(10.0698 0.173615 0)
(10.1047 0.184958 0)
(10.1328 0.186153 0)
(10.1497 0.186263 0)
(10.1593 0.188239 0)
(10.1606 0.192008 0)
(10.1595 0.195875 0)
(10.1534 0.199165 0)
(10.1471 0.201038 0)
(10.1364 0.20208 0)
(10.1257 0.202079 0)
(10.1102 0.201885 0)
(10.0946 0.201275 0)
(10.0741 0.200748 0)
(10.0535 0.200085 0)
(10.0285 0.199373 0)
(10.0033 0.198617 0)
(9.97432 0.197629 0)
(9.94474 0.196701 0)
(9.91213 0.195408 0)
(9.87852 0.194275 0)
(9.84246 0.192785 0)
(9.8052 0.191405 0)
(9.76561 0.189891 0)
(9.72513 0.188212 0)
(9.68194 0.186782 0)
(9.63853 0.184889 0)
(9.59168 0.183531 0)
(9.54549 0.181552 0)
(9.49503 0.180307 0)
(9.44598 0.178344 0)
(9.39193 0.177312 0)
(9.33967 0.175465 0)
(9.28217 0.174709 0)
(9.2261 0.173241 0)
(9.16515 0.172834 0)
(9.10459 0.171998 0)
(9.03976 0.172143 0)
(8.97406 0.172122 0)
(8.90436 0.173163 0)
(8.8329 0.174208 0)
(8.75688 0.176525 0)
(8.67887 0.178959 0)
(8.59461 0.183026 0)
(8.50889 0.187139 0)
(8.4141 0.193481 0)
(8.31878 0.199647 0)
(8.21095 0.208698 0)
(8.10326 0.217452 0)
(7.97947 0.229589 0)
(7.85586 0.241379 0)
(7.71252 0.25701 0)
(7.56873 0.272088 0)
(7.40144 0.291484 0)
(7.23251 0.30969 0)
(7.03623 0.332719 0)
(6.83652 0.353089 0)
(6.60596 0.378708 0)
(6.36945 0.398837 0)
(6.09947 0.423676 0)
(5.82051 0.438191 0)
(5.50745 0.45399 0)
(5.1895 0.451573 0)
(4.84251 0.447299 0)
(4.46947 0.414668 0)
(4.06077 0.38141 0)
(3.59378 0.321355 0)
(3.06459 0.281143 0)
(2.38654 0.215428 0)
(1.55925 0.224515 0)
(0.513276 0.151754 0)
(-0.161626 -0.00075622 0)
(-0.555614 0.0466159 0)
(-0.479925 -0.0758041 0)
(-0.144968 -0.686314 0)
(-0.450762 -0.794756 0)
(-0.317646 -0.000315339 0)
(-0.292072 0.586286 0)
(10 0.0268043 0)
(10.0167 0.0697288 0)
(10.0429 0.0998902 0)
(10.0746 0.117538 0)
(10.1084 0.126777 0)
(10.1392 0.131924 0)
(10.1674 0.135793 0)
(10.1908 0.140472 0)
(10.2132 0.145191 0)
(10.2328 0.150552 0)
(10.2537 0.154683 0)
(10.2728 0.158939 0)
(10.2938 0.161455 0)
(10.3125 0.164382 0)
(10.3329 0.16586 0)
(10.3506 0.168088 0)
(10.3695 0.169254 0)
(10.3856 0.171065 0)
(10.4028 0.172213 0)
(10.4176 0.173517 0)
(10.4328 0.174772 0)
(10.4462 0.175371 0)
(10.4595 0.176834 0)
(10.4713 0.176767 0)
(10.4827 0.178331 0)
(10.4925 0.177937 0)
(10.5019 0.179321 0)
(10.5095 0.179008 0)
(10.5169 0.180042 0)
(10.5216 0.180013 0)
(10.5271 0.180721 0)
(10.5289 0.181104 0)
(10.5319 0.181658 0)
(10.5308 0.182465 0)
(10.5307 0.183297 0)
(10.5272 0.184257 0)
(10.5228 0.186141 0)
(10.5174 0.186991 0)
(10.5077 0.190487 0)
(10.5003 0.191485 0)
(10.4847 0.196673 0)
(10.4749 0.198589 0)
(10.4531 0.205465 0)
(10.4397 0.209149 0)
(10.4119 0.217851 0)
(10.3931 0.224238 0)
(10.3592 0.23497 0)
(10.3336 0.244949 0)
(10.2927 0.258296 0)
(10.259 0.272334 0)
(10.2095 0.289409 0)
(10.1664 0.307768 0)
(10.1065 0.329607 0)
(10.0521 0.352775 0)
(9.9793 0.380053 0)
(9.91114 0.40838 0)
(9.82298 0.441582 0)
(9.73741 0.474515 0)
(9.63099 0.513516 0)
(9.52323 0.549118 0)
(9.39454 0.591814 0)
(9.2583 0.62592 0)
(9.10155 0.666212 0)
(8.92766 0.691284 0)
(8.7333 0.718544 0)
(8.50925 0.725347 0)
(8.25572 0.733741 0)
(7.95209 0.724095 0)
(7.61664 0.732547 0)
(7.20799 0.740675 0)
(6.76319 0.800475 0)
(6.22529 0.872242 0)
(5.66413 0.995189 0)
(4.9928 0.980385 0)
(4.40218 0.901014 0)
(3.38827 0.717594 0)
(2.67343 0.464646 0)
(1.20263 0.232973 0)
(-0.203045 -0.220691 0)
(-0.407346 -0.33985 0)
(10.0001 0.0189354 0)
(10.0099 0.0525276 0)
(10.028 0.080775 0)
(10.0507 0.101106 0)
(10.0784 0.114824 0)
(10.1047 0.123005 0)
(10.1324 0.128454 0)
(10.1556 0.132506 0)
(10.1802 0.136314 0)
(10.2006 0.140305 0)
(10.2243 0.143933 0)
(10.2446 0.147639 0)
(10.2691 0.150217 0)
(10.2902 0.152928 0)
(10.3154 0.154411 0)
(10.3369 0.156282 0)
(10.3621 0.157293 0)
(10.3835 0.158605 0)
(10.4083 0.1597 0)
(10.4297 0.160494 0)
(10.4538 0.161905 0)
(10.4752 0.162083 0)
(10.4985 0.163859 0)
(10.5198 0.163561 0)
(10.5425 0.165456 0)
(10.563 0.165112 0)
(10.5851 0.166802 0)
(10.6047 0.166821 0)
(10.6259 0.168189 0)
(10.6444 0.168707 0)
(10.6646 0.169826 0)
(10.6816 0.171117 0)
(10.7007 0.17186 0)
(10.716 0.174407 0)
(10.7336 0.174675 0)
(10.7472 0.178727 0)
(10.7627 0.178998 0)
(10.7747 0.184349 0)
(10.7877 0.185477 0)
(10.798 0.191855 0)
(10.8079 0.194827 0)
(10.8168 0.201959 0)
(10.8227 0.207926 0)
(10.8301 0.215669 0)
(10.8321 0.225394 0)
(10.8367 0.234569 0)
(10.8358 0.247859 0)
(10.8358 0.260108 0)
(10.8327 0.276813 0)
(10.8271 0.293284 0)
(10.8215 0.314178 0)
(10.8095 0.335462 0)
(10.8017 0.361458 0)
(10.7819 0.388386 0)
(10.7715 0.420086 0)
(10.7433 0.453338 0)
(10.7289 0.490892 0)
(10.6913 0.531213 0)
(10.6716 0.572859 0)
(10.6213 0.62101 0)
(10.5952 0.663261 0)
(10.5258 0.716952 0)
(10.4892 0.756809 0)
(10.3923 0.808575 0)
(10.3325 0.844153 0)
(10.1972 0.887907 0)
(10.0937 0.922551 0)
(9.90499 0.968995 0)
(9.74087 1.01555 0)
(9.48299 1.08892 0)
(9.2466 1.16595 0)
(8.90686 1.27989 0)
(8.58982 1.36867 0)
(8.14587 1.46245 0)
(7.71482 1.47366 0)
(7.13176 1.51485 0)
(6.50431 1.47921 0)
(5.7653 1.53033 0)
(4.80953 1.51292 0)
(3.66764 1.28546 0)
(10.0006 0.01354 0)
(10.0063 0.0382259 0)
(10.0203 0.0606652 0)
(10.0362 0.0776524 0)
(10.0592 0.0907143 0)
(10.0807 0.0987191 0)
(10.1066 0.10461 0)
(10.128 0.108115 0)
(10.1528 0.111428 0)
(10.1727 0.114379 0)
(10.1968 0.11725 0)
(10.2164 0.120558 0)
(10.241 0.122576 0)
(10.2613 0.1258 0)
(10.2867 0.126587 0)
(10.3079 0.129586 0)
(10.3335 0.129362 0)
(10.3551 0.132308 0)
(10.3805 0.131636 0)
(10.4025 0.134517 0)
(10.4273 0.133939 0)
(10.4498 0.136324 0)
(10.4738 0.136493 0)
(10.4968 0.137859 0)
(10.5201 0.139151 0)
(10.5431 0.139484 0)
(10.5659 0.141692 0)
(10.5885 0.141632 0)
(10.611 0.14411 0)
(10.6323 0.144435 0)
(10.6553 0.146748 0)
(10.6743 0.148082 0)
(10.6982 0.149951 0)
(10.7143 0.152788 0)
(10.739 0.154182 0)
(10.7523 0.158655 0)
(10.7773 0.160324 0)
(10.7882 0.165811 0)
(10.8126 0.169011 0)
(10.8214 0.175085 0)
(10.8449 0.180494 0)
(10.8516 0.187598 0)
(10.874 0.195522 0)
(10.8783 0.203936 0)
(10.8998 0.215421 0)
(10.901 0.225095 0)
(10.9225 0.240878 0)
(10.9192 0.253032 0)
(10.9419 0.272675 0)
(10.9336 0.289102 0)
(10.9571 0.313022 0)
(10.9453 0.334049 0)
(10.9674 0.363781 0)
(10.9541 0.389947 0)
(10.9741 0.425664 0)
(10.9591 0.458497 0)
(10.9778 0.500402 0)
(10.9605 0.538789 0)
(10.9763 0.589441 0)
(10.9582 0.630019 0)
(10.966 0.689426 0)
(10.9472 0.732901 0)
(10.9423 0.793333 0)
(10.9145 0.846461 0)
(10.8945 0.898578 0)
(10.8434 0.967383 0)
(10.8007 1.01757 0)
(10.7169 1.10142 0)
(10.6372 1.17275 0)
(10.5132 1.2698 0)
(10.3907 1.3797 0)
(10.2065 1.49126 0)
(10.0507 1.62937 0)
(9.77104 1.73863 0)
(9.58642 1.86953 0)
(9.15761 1.95046 0)
(8.92052 2.05589 0)
(8.25167 2.09297 0)
(7.88184 2.17209 0)
(6.87287 2.14019 0)
(10.0006 0.00973457 0)
(10.0048 0.0279397 0)
(10.0156 0.044836 0)
(10.0283 0.0587288 0)
(10.0471 0.0698708 0)
(10.0659 0.0777763 0)
(10.0888 0.0833358 0)
(10.1094 0.0871325 0)
(10.133 0.0900212 0)
(10.1531 0.0927221 0)
(10.1767 0.0949483 0)
(10.1963 0.0978958 0)
(10.2206 0.0993913 0)
(10.2403 0.102734 0)
(10.266 0.103043 0)
(10.2856 0.106562 0)
(10.3127 0.105761 0)
(10.3318 0.109274 0)
(10.36 0.108097 0)
(10.3783 0.11135 0)
(10.4072 0.110471 0)
(10.4249 0.113156 0)
(10.4544 0.113092 0)
(10.4712 0.114857 0)
(10.5014 0.116024 0)
(10.5171 0.116566 0)
(10.5479 0.119338 0)
(10.5624 0.118499 0)
(10.5936 0.123018 0)
(10.6067 0.120967 0)
(10.6386 0.127224 0)
(10.6496 0.124431 0)
(10.6823 0.132002 0)
(10.691 0.129435 0)
(10.7244 0.137377 0)
(10.7307 0.136612 0)
(10.7646 0.143872 0)
(10.7684 0.14604 0)
(10.8027 0.152639 0)
(10.8042 0.157649 0)
(10.8379 0.164768 0)
(10.8383 0.172083 0)
(10.8698 0.180864 0)
(10.8708 0.190283 0)
(10.8987 0.202013 0)
(10.901 0.212923 0)
(10.9249 0.229427 0)
(10.9288 0.241738 0)
(10.949 0.263078 0)
(10.9536 0.279644 0)
(10.9722 0.303509 0)
(10.9758 0.327611 0)
(10.9938 0.354007 0)
(10.9981 0.385101 0)
(11.0124 0.416858 0)
(11.022 0.454561 0)
(11.0294 0.490485 0)
(11.0455 0.539711 0)
(11.0474 0.573724 0)
(11.0659 0.639901 0)
(11.0654 0.669776 0)
(11.0812 0.748776 0)
(11.0776 0.784476 0)
(11.086 0.862984 0)
(11.0778 0.917763 0)
(11.0658 0.994623 0)
(11.0607 1.06662 0)
(11.0051 1.1612 0)
(11.0116 1.24339 0)
(10.8968 1.37185 0)
(10.9141 1.46761 0)
(10.7308 1.6328 0)
(10.7611 1.74361 0)
(10.4959 1.93425 0)
(10.5264 2.05126 0)
(10.179 2.23759 0)
(10.1286 2.34412 0)
(9.71743 2.52394 0)
(9.45622 2.58851 0)
(9.00974 2.81796 0)
(10.0002 0.00684164 0)
(10.0044 0.020185 0)
(10.0125 0.032519 0)
(10.0242 0.0431891 0)
(10.0393 0.0521644 0)
(10.0569 0.058915 0)
(10.0768 0.0639735 0)
(10.097 0.0673705 0)
(10.1191 0.0701226 0)
(10.1393 0.0721148 0)
(10.1627 0.0743035 0)
(10.1817 0.0760098 0)
(10.2068 0.0780278 0)
(10.2248 0.0798309 0)
(10.2524 0.0812841 0)
(10.2688 0.0832005 0)
(10.2992 0.0836763 0)
(10.3139 0.0859529 0)
(10.3468 0.0855287 0)
(10.3596 0.0883356 0)
(10.3945 0.0873675 0)
(10.4056 0.0905153 0)
(10.4419 0.0896437 0)
(10.4517 0.0925433 0)
(10.4887 0.092514 0)
(10.498 0.0946251 0)
(10.5345 0.0959379 0)
(10.5444 0.0970415 0)
(10.5791 0.0998401 0)
(10.5904 0.100148 0)
(10.6228 0.104421 0)
(10.6351 0.104357 0)
(10.6658 0.109753 0)
(10.678 0.110099 0)
(10.7076 0.116062 0)
(10.7195 0.117846 0)
(10.748 0.123819 0)
(10.7588 0.127999 0)
(10.7872 0.133495 0)
(10.7958 0.141242 0)
(10.8247 0.145625 0)
(10.8311 0.158241 0)
(10.8594 0.161153 0)
(10.8656 0.179371 0)
(10.891 0.181563 0)
(10.899 0.204841 0)
(10.9198 0.208733 0)
(10.9317 0.234951 0)
(10.9461 0.244391 0)
(10.9639 0.271131 0)
(10.971 0.288746 0)
(10.9944 0.316629 0)
(10.9973 0.341325 0)
(11.0224 0.373737 0)
(11.0257 0.404289 0)
(11.0497 0.441266 0)
(11.0556 0.482132 0)
(11.0772 0.517287 0)
(11.0869 0.577369 0)
(11.1047 0.603585 0)
(11.1185 0.686179 0)
(11.1289 0.709055 0)
(11.1501 0.802257 0)
(11.1444 0.839327 0)
(11.1763 0.933342 0)
(11.1468 0.991568 0)
(11.1908 1.09334 0)
(11.1232 1.174 0)
(11.192 1.28928 0)
(11.0645 1.40126 0)
(11.1627 1.53413 0)
(10.9847 1.67924 0)
(11.0752 1.83306 0)
(10.8905 2.01689 0)
(10.922 2.15687 0)
(10.7446 2.41216 0)
(10.6957 2.48284 0)
(10.4864 2.81651 0)
(10.3383 2.85661 0)
(10.0837 3.15561 0)
(9.99988 0.00444098 0)
(10.004 0.0139108 0)
(10.0107 0.0221913 0)
(10.0215 0.0297992 0)
(10.0346 0.0363419 0)
(10.051 0.0412402 0)
(10.0691 0.0454703 0)
(10.0884 0.0477461 0)
(10.11 0.0505668 0)
(10.1294 0.0513468 0)
(10.1535 0.0539336 0)
(10.1711 0.0540363 0)
(10.198 0.0568146 0)
(10.2135 0.0568812 0)
(10.2438 0.0593572 0)
(10.2566 0.0597203 0)
(10.2909 0.0612318 0)
(10.3008 0.0623154 0)
(10.3387 0.0627349 0)
(10.3462 0.0646907 0)
(10.3862 0.0642881 0)
(10.3926 0.0670798 0)
(10.433 0.0661526 0)
(10.4396 0.0697207 0)
(10.479 0.0684429 0)
(10.4869 0.0727666 0)
(10.524 0.0713206 0)
(10.5344 0.0761341 0)
(10.5678 0.0751386 0)
(10.5817 0.0798142 0)
(10.611 0.080426 0)
(10.6277 0.0839876 0)
(10.6536 0.0871659 0)
(10.672 0.0894565 0)
(10.6956 0.0950196 0)
(10.7149 0.0972892 0)
(10.7362 0.104115 0)
(10.7561 0.107644 0)
(10.7759 0.115575 0)
(10.7948 0.120449 0)
(10.8149 0.130206 0)
(10.8313 0.136769 0)
(10.8528 0.147904 0)
(10.866 0.157991 0)
(10.889 0.169542 0)
(10.8996 0.184256 0)
(10.9235 0.197066 0)
(10.9325 0.216003 0)
(10.9561 0.23163 0)
(10.9661 0.254524 0)
(10.9867 0.274893 0)
(11.0006 0.299653 0)
(11.0175 0.330185 0)
(11.0347 0.351273 0)
(11.0505 0.398704 0)
(11.0684 0.412954 0)
(11.0866 0.477399 0)
(11.1014 0.491419 0)
(11.1274 0.563134 0)
(11.1319 0.589352 0)
(11.172 0.661088 0)
(11.1609 0.702018 0)
(11.2161 0.780204 0)
(11.1863 0.831599 0)
(11.2585 0.921996 0)
(11.2033 0.987511 0)
(11.29 1.09338 0)
(11.215 1.17677 0)
(11.2978 1.30223 0)
(11.215 1.42022 0)
(11.2864 1.54349 0)
(11.1832 1.74021 0)
(11.2606 1.82706 0)
(11.1161 2.11361 0)
(11.1952 2.19434 0)
(11.0284 2.4876 0)
(11.0485 2.65279 0)
(10.9074 2.8761 0)
(10.807 3.11482 0)
(10.6782 3.33521 0)
(9.99956 0.00264636 0)
(10.0037 0.00796314 0)
(10.0098 0.0133542 0)
(10.0195 0.0172023 0)
(10.0324 0.022102 0)
(10.0469 0.0240341 0)
(10.0651 0.0279018 0)
(10.0826 0.0282031 0)
(10.1048 0.0312324 0)
(10.1229 0.0307778 0)
(10.1477 0.0333112 0)
(10.1645 0.0326714 0)
(10.1921 0.0351425 0)
(10.207 0.0346602 0)
(10.2375 0.0369587 0)
(10.2503 0.0367606 0)
(10.2839 0.0383728 0)
(10.2949 0.0391198 0)
(10.3311 0.0392969 0)
(10.3408 0.0418469 0)
(10.3783 0.0400417 0)
(10.3875 0.0448945 0)
(10.425 0.0412084 0)
(10.4348 0.0481474 0)
(10.4712 0.0431583 0)
(10.4824 0.0517057 0)
(10.5163 0.0458829 0)
(10.5306 0.0556928 0)
(10.5597 0.04965 0)
(10.5794 0.0601161 0)
(10.602 0.055107 0)
(10.6273 0.0648277 0)
(10.644 0.0625615 0)
(10.6734 0.0703318 0)
(10.6859 0.0718743 0)
(10.7179 0.0777302 0)
(10.7267 0.0827621 0)
(10.7612 0.0878036 0)
(10.7666 0.0956694 0)
(10.8024 0.100797 0)
(10.8062 0.111582 0)
(10.8414 0.117115 0)
(10.845 0.130888 0)
(10.8794 0.13816 0)
(10.8825 0.153643 0)
(10.9159 0.164959 0)
(10.9204 0.181432 0)
(10.9501 0.197004 0)
(10.9594 0.216817 0)
(10.9837 0.234815 0)
(10.9974 0.259882 0)
(11.0199 0.281988 0)
(11.0339 0.309083 0)
(11.0586 0.341843 0)
(11.0722 0.365467 0)
(11.0977 0.413512 0)
(11.1138 0.435447 0)
(11.1383 0.491778 0)
(11.1587 0.526228 0)
(11.1788 0.577983 0)
(11.2102 0.634659 0)
(11.2156 0.683746 0)
(11.2658 0.757216 0)
(11.2537 0.815728 0)
(11.3155 0.899381 0)
(11.2943 0.981804 0)
(11.3584 1.06331 0)
(11.326 1.19483 0)
(11.3968 1.26351 0)
(11.3432 1.44735 0)
(11.4184 1.53821 0)
(11.3528 1.72642 0)
(11.4042 1.89837 0)
(11.3527 2.06658 0)
(11.3521 2.29214 0)
(11.3158 2.51932 0)
(11.2624 2.69689 0)
(11.2317 3.02765 0)
(11.0838 3.18539 0)
(11.1003 3.48697 0)
(9.99922 0.00112045 0)
(10.0038 0.00237642 0)
(10.0092 0.00496668 0)
(10.0187 0.00540999 0)
(10.0313 0.00826785 0)
(10.0449 0.00766118 0)
(10.0634 0.0104569 0)
(10.0798 0.00914959 0)
(10.1024 0.0118785 0)
(10.1198 0.0103087 0)
(10.1447 0.0128246 0)
(10.1618 0.0112851 0)
(10.1885 0.0137035 0)
(10.2049 0.0125433 0)
(10.2334 0.0145024 0)
(10.2487 0.0142253 0)
(10.2795 0.0150439 0)
(10.2935 0.0165052 0)
(10.3265 0.0154145 0)
(10.3395 0.019151 0)
(10.3737 0.0160502 0)
(10.3866 0.0218951 0)
(10.4205 0.0175526 0)
(10.4343 0.0247252 0)
(10.4668 0.0200426 0)
(10.4823 0.0279863 0)
(10.5121 0.0231655 0)
(10.5311 0.0321347 0)
(10.5556 0.0270993 0)
(10.5812 0.0370663 0)
(10.5971 0.0328101 0)
(10.6315 0.0420601 0)
(10.6378 0.0410458 0)
(10.6803 0.0475573 0)
(10.6788 0.0513301 0)
(10.7273 0.0552043 0)
(10.7195 0.0628577 0)
(10.7728 0.0659162 0)
(10.7596 0.0762248 0)
(10.8163 0.0796344 0)
(10.8005 0.0925349 0)
(10.8566 0.0967188 0)
(10.8422 0.112262 0)
(10.8956 0.118017 0)
(10.8824 0.136061 0)
(10.9353 0.144305 0)
(10.9212 0.164452 0)
(10.9745 0.177229 0)
(10.9623 0.197417 0)
(11.0109 0.218382 0)
(11.0071 0.236492 0)
(11.0462 0.266788 0)
(11.0542 0.286555 0)
(11.0834 0.319517 0)
(11.1028 0.351588 0)
(11.1235 0.378797 0)
(11.1543 0.428215 0)
(11.1665 0.453461 0)
(11.2086 0.513125 0)
(11.2151 0.546014 0)
(11.2633 0.612815 0)
(11.2695 0.656716 0)
(11.322 0.729756 0)
(11.3216 0.794167 0)
(11.3902 0.869408 0)
(11.3686 0.955884 0)
(11.4578 1.0559 0)
(11.4233 1.13735 0)
(11.5052 1.29679 0)
(11.4883 1.3748 0)
(11.5354 1.56306 0)
(11.5383 1.71411 0)
(11.5584 1.86274 0)
(11.5614 2.11963 0)
(11.5459 2.28136 0)
(11.566 2.52523 0)
(11.4801 2.81767 0)
(11.504 3.00442 0)
(11.3781 3.33089 0)
(11.3219 3.60286 0)
(9.99918 -0.000715475 0)
(10.004 -0.00257667 0)
(10.009 -0.00360631 0)
(10.0191 -0.0057968 0)
(10.0309 -0.0055521 0)
(10.0453 -0.00839931 0)
(10.063 -0.00679766 0)
(10.0803 -0.0098436 0)
(10.1021 -0.00742085 0)
(10.1205 -0.0100446 0)
(10.1442 -0.00794204 0)
(10.1628 -0.0096229 0)
(10.1878 -0.00826619 0)
(10.2063 -0.00902983 0)
(10.2324 -0.00825647 0)
(10.2504 -0.00831964 0)
(10.2782 -0.00790002 0)
(10.2959 -0.00690598 0)
(10.3248 -0.00757373 0)
(10.3428 -0.00460967 0)
(10.3712 -0.00722302 0)
(10.3913 -0.00177873 0)
(10.4171 -0.00593854 0)
(10.4405 0.00104101 0)
(10.4628 -0.00317973 0)
(10.4894 0.00388942 0)
(10.5083 0.000613867 0)
(10.5385 0.00774292 0)
(10.5526 0.00494558 0)
(10.5889 0.0131711 0)
(10.5949 0.0103161 0)
(10.64 0.0192819 0)
(10.6362 0.0183081 0)
(10.6898 0.0252884 0)
(10.6783 0.029514 0)
(10.7373 0.0324274 0)
(10.7208 0.0424774 0)
(10.7831 0.0430487 0)
(10.7632 0.0563427 0)
(10.827 0.0575884 0)
(10.8069 0.0726471 0)
(10.8673 0.0754238 0)
(10.8531 0.09211 0)
(10.9046 0.0983392 0)
(10.9 0.113838 0)
(10.9423 0.12736 0)
(10.945 0.140603 0)
(10.9824 0.15904 0)
(10.9894 0.178048 0)
(11.0232 0.191446 0)
(11.0359 0.226417 0)
(11.0646 0.230125 0)
(11.0851 0.280134 0)
(11.1078 0.28273 0)
(11.1376 0.336861 0)
(11.1546 0.349911 0)
(11.192 0.402889 0)
(11.2083 0.427653 0)
(11.2486 0.484073 0)
(11.2667 0.518024 0)
(11.3132 0.582648 0)
(11.3276 0.622776 0)
(11.3827 0.707036 0)
(11.3994 0.744677 0)
(11.4495 0.856186 0)
(11.4813 0.908882 0)
(11.5229 1.01463 0)
(11.5565 1.13911 0)
(11.6089 1.20465 0)
(11.6285 1.40339 0)
(11.6831 1.50026 0)
(11.71 1.67071 0)
(11.7353 1.9047 0)
(11.7672 2.02976 0)
(11.7847 2.3186 0)
(11.7691 2.55937 0)
(11.7798 2.76901 0)
(11.7451 3.13537 0)
(11.6607 3.37511 0)
(11.6279 3.67587 0)
(9.99942 -0.00243177 0)
(10.0039 -0.00791459 0)
(10.0095 -0.0122103 0)
(10.0201 -0.017336 0)
(10.0319 -0.0196789 0)
(10.0474 -0.0245558 0)
(10.0648 -0.0244062 0)
(10.0834 -0.028751 0)
(10.1046 -0.0269443 0)
(10.1241 -0.0304533 0)
(10.1469 -0.0286479 0)
(10.1668 -0.0308592 0)
(10.1901 -0.0300215 0)
(10.211 -0.0309798 0)
(10.2341 -0.0309745 0)
(10.2561 -0.0309147 0)
(10.2797 -0.0312242 0)
(10.3022 -0.0300094 0)
(10.3263 -0.0312349 0)
(10.3496 -0.0279953 0)
(10.3727 -0.0311664 0)
(10.3987 -0.0251704 0)
(10.4185 -0.0301141 0)
(10.4489 -0.022307 0)
(10.4641 -0.0273587 0)
(10.4985 -0.0196126 0)
(10.5103 -0.023201 0)
(10.5473 -0.015959 0)
(10.5565 -0.0184531 0)
(10.5966 -0.0104294 0)
(10.6014 -0.0130388 0)
(10.6463 -0.00359993 0)
(10.6457 -0.00546608 0)
(10.6948 0.00365137 0)
(10.6911 0.00517385 0)
(10.7409 0.0119134 0)
(10.7371 0.01803 0)
(10.7864 0.0230252 0)
(10.7811 0.0324381 0)
(10.833 0.0376678 0)
(10.8239 0.0495627 0)
(10.8778 0.0546819 0)
(10.8696 0.0714751 0)
(10.9186 0.0737706 0)
(10.9181 0.098469 0)
(10.9587 0.0973024 0)
(10.9653 0.128526 0)
(11.0029 0.128912 0)
(11.01 0.160287 0)
(11.0507 0.16994 0)
(11.0554 0.196099 0)
(11.1008 0.218445 0)
(11.1032 0.241133 0)
(11.1539 0.271172 0)
(11.1555 0.299399 0)
(11.208 0.330391 0)
(11.2171 0.368487 0)
(11.2631 0.402052 0)
(11.285 0.449393 0)
(11.3285 0.487134 0)
(11.3536 0.544909 0)
(11.4055 0.595636 0)
(11.4305 0.647938 0)
(11.486 0.739388 0)
(11.5223 0.773427 0)
(11.5712 0.897136 0)
(11.6237 0.966294 0)
(11.6667 1.05673 0)
(11.7324 1.22322 0)
(11.7643 1.28771 0)
(11.8533 1.48338 0)
(11.8604 1.65417 0)
(11.9515 1.78413 0)
(11.9859 2.07849 0)
(11.9865 2.25477 0)
(12.0818 2.52008 0)
(12.0266 2.8526 0)
(12.027 3.09662 0)
(12.0306 3.47319 0)
(11.8702 3.80353 0)
(9.9994 -0.00443431 0)
(10.0041 -0.0131798 0)
(10.0106 -0.0219875 0)
(10.0216 -0.0289061 0)
(10.0348 -0.035326 0)
(10.0511 -0.0406517 0)
(10.0695 -0.0430844 0)
(10.0889 -0.0475744 0)
(10.1106 -0.046885 0)
(10.1306 -0.050878 0)
(10.1532 -0.0495089 0)
(10.1738 -0.0521865 0)
(10.1965 -0.0520526 0)
(10.2182 -0.0529913 0)
(10.2407 -0.0539584 0)
(10.2635 -0.0537133 0)
(10.2871 -0.0544793 0)
(10.3093 -0.0537536 0)
(10.335 -0.0543585 0)
(10.3559 -0.0524886 0)
(10.3829 -0.0542484 0)
(10.4046 -0.0499134 0)
(10.4297 -0.0533369 0)
(10.4545 -0.0471816 0)
(10.4763 -0.0503683 0)
(10.5037 -0.0451777 0)
(10.5244 -0.0450485 0)
(10.5513 -0.0428407 0)
(10.5736 -0.0388617 0)
(10.5986 -0.0380867 0)
(10.6219 -0.0331308 0)
(10.647 -0.030578 0)
(10.6685 -0.026141 0)
(10.6957 -0.0224691 0)
(10.7151 -0.0151459 0)
(10.7429 -0.0147201 0)
(10.762 -0.000607948 0)
(10.7903 -0.0048837 0)
(10.8062 0.0155262 0)
(10.8409 0.00888864 0)
(10.8462 0.0334249 0)
(10.8933 0.0262972 0)
(10.8866 0.0541453 0)
(10.9431 0.0482907 0)
(10.9314 0.0762319 0)
(10.9888 0.0779207 0)
(10.9807 0.0988668 0)
(11.0332 0.115058 0)
(11.0319 0.126523 0)
(11.0797 0.154414 0)
(11.085 0.165906 0)
(11.1284 0.194357 0)
(11.1422 0.215857 0)
(11.1793 0.241535 0)
(11.2041 0.271847 0)
(11.2366 0.300684 0)
(11.2679 0.334827 0)
(11.304 0.373659 0)
(11.3364 0.406203 0)
(11.3777 0.461211 0)
(11.4182 0.497342 0)
(11.4553 0.550976 0)
(11.5134 0.628446 0)
(11.5458 0.644986 0)
(11.616 0.784316 0)
(11.6529 0.794343 0)
(11.7319 0.924715 0)
(11.7751 1.03289 0)
(11.8545 1.08792 0)
(11.9296 1.29746 0)
(11.9696 1.38429 0)
(12.0934 1.55641 0)
(12.1263 1.79531 0)
(12.1929 1.94437 0)
(12.311 2.237 0)
(12.2847 2.50155 0)
(12.3717 2.79389 0)
(12.3847 3.15727 0)
(12.3124 3.50549 0)
(12.3181 3.8947 0)
(9.99915 -0.00687007 0)
(10.0048 -0.0191115 0)
(10.0119 -0.0328628 0)
(10.0247 -0.0417261 0)
(10.039 -0.0522309 0)
(10.0575 -0.0573975 0)
(10.0769 -0.0627789 0)
(10.0977 -0.0661831 0)
(10.12 -0.0675694 0)
(10.14 -0.0709049 0)
(10.1638 -0.0707586 0)
(10.1834 -0.073718 0)
(10.2073 -0.0739385 0)
(10.2285 -0.075778 0)
(10.2515 -0.0764127 0)
(10.275 -0.0773141 0)
(10.298 -0.0773185 0)
(10.3217 -0.0779707 0)
(10.3464 -0.0773625 0)
(10.3684 -0.0772785 0)
(10.3954 -0.0772465 0)
(10.4167 -0.0751014 0)
(10.4436 -0.0764307 0)
(10.4663 -0.0724458 0)
(10.4912 -0.0737878 0)
(10.5155 -0.0701954 0)
(10.5403 -0.0687346 0)
(10.5634 -0.0678015 0)
(10.5906 -0.0622652 0)
(10.6112 -0.0635596 0)
(10.6393 -0.0557927 0)
(10.6614 -0.0564087 0)
(10.6852 -0.0487369 0)
(10.7133 -0.0473257 0)
(10.7308 -0.0391027 0)
(10.7633 -0.0372894 0)
(10.778 -0.0268278 0)
(10.8118 -0.0242648 0)
(10.8244 -0.0143741 0)
(10.8624 -0.005438 0)
(10.8671 -0.00224867 0)
(10.9163 0.0177612 0)
(10.9086 0.0145085 0)
(10.9688 0.0396969 0)
(10.9547 0.0412174 0)
(11.0162 0.0591994 0)
(11.008 0.0759235 0)
(11.0598 0.083116 0)
(11.0658 0.111383 0)
(11.1053 0.118859 0)
(11.1238 0.14598 0)
(11.1585 0.163693 0)
(11.1799 0.188424 0)
(11.2195 0.210523 0)
(11.2412 0.243776 0)
(11.2813 0.262651 0)
(11.3152 0.308332 0)
(11.3463 0.325806 0)
(11.3953 0.383566 0)
(11.4284 0.401951 0)
(11.4753 0.467527 0)
(11.5298 0.507195 0)
(11.5647 0.548326 0)
(11.6461 0.651681 0)
(11.6671 0.651593 0)
(11.7846 0.794911 0)
(11.787 0.839351 0)
(11.931 0.923874 0)
(11.9601 1.08817 0)
(12.0587 1.13955 0)
(12.1809 1.33089 0)
(12.2263 1.48923 0)
(12.3504 1.64459 0)
(12.4846 1.91339 0)
(12.4835 2.1224 0)
(12.6819 2.43811 0)
(12.6698 2.76503 0)
(12.754 3.11967 0)
(12.7254 3.56126 0)
(12.7512 3.99169 0)
(9.99898 -0.00936659 0)
(10.0062 -0.0271617 0)
(10.0138 -0.0452605 0)
(10.0301 -0.0571907 0)
(10.0457 -0.0705039 0)
(10.0677 -0.0759161 0)
(10.0881 -0.0827562 0)
(10.1108 -0.0856836 0)
(10.1337 -0.0879049 0)
(10.1539 -0.0914903 0)
(10.1784 -0.09182 0)
(10.1976 -0.095653 0)
(10.222 -0.0958242 0)
(10.2438 -0.0989193 0)
(10.2661 -0.098422 0)
(10.2922 -0.101647 0)
(10.3124 -0.0989128 0)
(10.3404 -0.103412 0)
(10.3609 -0.0987236 0)
(10.388 -0.103232 0)
(10.4102 -0.0990213 0)
(10.4372 -0.100759 0)
(10.4582 -0.0992704 0)
(10.4884 -0.0972505 0)
(10.505 -0.0978112 0)
(10.5401 -0.0941828 0)
(10.553 -0.0934759 0)
(10.5902 -0.0914389 0)
(10.6031 -0.0874494 0)
(10.6393 -0.0865555 0)
(10.6527 -0.0822385 0)
(10.6901 -0.0773889 0)
(10.7001 -0.0777216 0)
(10.7422 -0.0653216 0)
(10.748 -0.0707868 0)
(10.7909 -0.0530451 0)
(10.8003 -0.0594471 0)
(10.8349 -0.0406409 0)
(10.8552 -0.0441205 0)
(10.8787 -0.0267097 0)
(10.9073 -0.0255968 0)
(10.9272 -0.00998575 0)
(10.9544 -0.0046835 0)
(10.9808 0.0103835 0)
(10.9984 0.0196209 0)
(11.0382 0.0330608 0)
(11.0425 0.0498544 0)
(11.0964 0.0578683 0)
(11.0914 0.0841748 0)
(11.1528 0.0914527 0)
(11.1475 0.116676 0)
(11.2094 0.13724 0)
(11.2089 0.152171 0)
(11.2707 0.186695 0)
(11.276 0.201767 0)
(11.3368 0.236386 0)
(11.3524 0.261052 0)
(11.4098 0.302016 0)
(11.4366 0.317931 0)
(11.4969 0.388143 0)
(11.5292 0.391842 0)
(11.5967 0.464624 0)
(11.6431 0.519904 0)
(11.7026 0.524877 0)
(11.7873 0.679928 0)
(11.8225 0.637062 0)
(11.9492 0.809483 0)
(11.9973 0.849755 0)
(12.089 0.945587 0)
(12.2574 1.09404 0)
(12.2482 1.20078 0)
(12.4955 1.353 0)
(12.542 1.5703 0)
(12.6927 1.73142 0)
(12.8294 2.05047 0)
(12.9819 2.28527 0)
(13.0248 2.6976 0)
(13.2121 3.07051 0)
(13.1707 3.54239 0)
(13.2372 4.06004 0)
(9.99811 -0.0127341 0)
(10.0093 -0.0381811 0)
(10.0168 -0.060737 0)
(10.04 -0.0765882 0)
(10.0558 -0.0911363 0)
(10.085 -0.0971509 0)
(10.1036 -0.104126 0)
(10.1317 -0.106726 0)
(10.1515 -0.109728 0)
(10.1754 -0.112956 0)
(10.1974 -0.114938 0)
(10.2187 -0.118082 0)
(10.2427 -0.119883 0)
(10.2649 -0.122119 0)
(10.2884 -0.122442 0)
(10.3137 -0.125517 0)
(10.3358 -0.122591 0)
(10.3627 -0.127873 0)
(10.3844 -0.122348 0)
(10.4115 -0.127999 0)
(10.4334 -0.122879 0)
(10.462 -0.125662 0)
(10.481 -0.123455 0)
(10.5143 -0.122093 0)
(10.5281 -0.122357 0)
(10.5663 -0.118788 0)
(10.5775 -0.118281 0)
(10.6155 -0.116152 0)
(10.6304 -0.11182 0)
(10.6621 -0.112265 0)
(10.6841 -0.105138 0)
(10.7094 -0.105014 0)
(10.7357 -0.0981213 0)
(10.7588 -0.0958474 0)
(10.7862 -0.0876322 0)
(10.8068 -0.0872357 0)
(10.839 -0.0726165 0)
(10.852 -0.0774913 0)
(10.8927 -0.0560524 0)
(10.8987 -0.062489 0)
(10.9423 -0.041408 0)
(10.9508 -0.0390866 0)
(10.987 -0.0299501 0)
(11.0079 -0.00815037 0)
(11.0297 -0.0159959 0)
(11.0671 0.0206627 0)
(11.0759 0.012138 0)
(11.1225 0.03992 0)
(11.1335 0.0546416 0)
(11.1719 0.0606153 0)
(11.198 0.0954742 0)
(11.2297 0.0969785 0)
(11.257 0.13111 0)
(11.3026 0.143381 0)
(11.3193 0.178015 0)
(11.3752 0.184638 0)
(11.4051 0.24601 0)
(11.4405 0.223331 0)
(11.512 0.326458 0)
(11.5169 0.278416 0)
(11.6238 0.399821 0)
(11.624 0.377756 0)
(11.7318 0.448393 0)
(11.7778 0.524493 0)
(11.8321 0.51321 0)
(11.9723 0.653679 0)
(11.9782 0.672693 0)
(12.1456 0.751635 0)
(12.2263 0.8879 0)
(12.3249 0.929188 0)
(12.4965 1.11056 0)
(12.621 1.19409 0)
(12.7581 1.4247 0)
(12.9759 1.58385 0)
(13.1027 1.84237 0)
(13.3279 2.15897 0)
(13.4662 2.53166 0)
(13.6454 2.96604 0)
(13.7273 3.49962 0)
(13.8293 4.10615 0)
(9.99618 -0.0182796 0)
(10.0153 -0.0524315 0)
(10.0221 -0.0812912 0)
(10.0575 -0.0996382 0)
(10.0721 -0.115929 0)
(10.1119 -0.120871 0)
(10.1268 -0.129019 0)
(10.1618 -0.130348 0)
(10.177 -0.136038 0)
(10.2053 -0.1377 0)
(10.2239 -0.14378 0)
(10.2483 -0.14346 0)
(10.2709 -0.1503 0)
(10.2939 -0.147466 0)
(10.3188 -0.152846 0)
(10.3414 -0.151461 0)
(10.368 -0.151965 0)
(10.3885 -0.155167 0)
(10.4174 -0.150684 0)
(10.4356 -0.156235 0)
(10.4657 -0.150995 0)
(10.4847 -0.153834 0)
(10.5119 -0.152067 0)
(10.5352 -0.149652 0)
(10.5576 -0.151288 0)
(10.5841 -0.14614 0)
(10.6064 -0.146774 0)
(10.6286 -0.143921 0)
(10.6587 -0.139492 0)
(10.67 -0.140335 0)
(10.7106 -0.132296 0)
(10.7129 -0.132979 0)
(10.7582 -0.124915 0)
(10.7591 -0.123715 0)
(10.8028 -0.114351 0)
(10.8046 -0.11399 0)
(10.8492 -0.100977 0)
(10.8462 -0.101558 0)
(10.8985 -0.0862245 0)
(10.8857 -0.086809 0)
(10.9481 -0.0680277 0)
(10.9266 -0.0702353 0)
(10.9956 -0.0491313 0)
(10.9733 -0.0452213 0)
(11.0364 -0.0352681 0)
(11.0312 -0.0115984 0)
(11.0715 -0.017618 0)
(11.0942 0.0161098 0)
(11.1159 0.0166136 0)
(11.1482 0.0352844 0)
(11.1767 0.0585724 0)
(11.2027 0.066176 0)
(11.239 0.089553 0)
(11.2776 0.115932 0)
(11.2965 0.119552 0)
(11.3656 0.169325 0)
(11.3692 0.160808 0)
(11.4578 0.229051 0)
(11.4564 0.203079 0)
(11.5725 0.30816 0)
(11.5523 0.248726 0)
(11.7004 0.392498 0)
(11.6937 0.326745 0)
(11.8155 0.459762 0)
(11.8885 0.453658 0)
(11.9575 0.523432 0)
(12.0956 0.601183 0)
(12.178 0.646609 0)
(12.3071 0.723577 0)
(12.4825 0.863649 0)
(12.5637 0.881745 0)
(12.8183 1.09911 0)
(12.9683 1.1782 0)
(13.1866 1.40447 0)
(13.4158 1.5958 0)
(13.7137 1.9243 0)
(13.9138 2.27342 0)
(14.1756 2.72862 0)
(14.3792 3.4173 0)
(14.5013 4.01617 0)
(9.99417 -0.0266497 0)
(10.0246 -0.0691204 0)
(10.0351 -0.100579 0)
(10.0838 -0.116124 0)
(10.1003 -0.127641 0)