/*--------------------------------*- C++ -*----------------------------------*\
| =========                 |                                                 |
| \\      /  F ield         | OpenFOAM: The Open Source CFD Toolbox           |
|  \\    /   O peration     | Version:  2306                                  |
|   \\  /    A nd           | Website:  www.openfoam.com                      |
|    \\/     M anipulation  |                                                 |
\*---------------------------------------------------------------------------*/
FoamFile
{
    version     2.0;
    format      ascii;
    arch        "LSB;label=32;scalar=64";
    class       volScalarField;
    location    "0.425";
    object      p;
}
// * * * * * * * * * * * * * * * * * * * * * * * * * * * * * * * * * * * * * //

dimensions      [0 2 -2 0 0 0 0];

internalField   nonuniform List<scalar> 
17600
(
415.411
413.368
411.59
410.36
409.596
409.09
408.672
408.265
407.847
407.424
407.004
406.592
406.188
405.791
405.399
405.012
404.632
404.259
403.898
403.551
403.223
402.916
402.632
402.373
402.14
401.932
401.75
401.591
401.453
401.334
401.231
401.142
401.063
400.992
400.927
400.866
400.808
400.75
400.693
400.635
400.575
400.515
400.453
400.389
400.323
400.256
400.188
400.119
400.048
399.977
399.905
399.833
399.76
399.688
399.616
399.544
399.472
399.401
399.33
399.26
399.191
399.123
399.056
398.99
398.925
398.861
398.798
398.737
398.677
398.618
398.56
398.504
398.45
398.396
398.345
398.295
398.246
398.2
398.155
398.112
398.071
398.032
397.995
397.96
397.927
397.897
397.869
397.843
397.82
397.799
397.782
397.767
397.755
397.746
397.741
397.739
397.74
397.745
397.753
397.766
397.782
397.803
397.828
397.857
397.891
397.929
397.972
398.021
398.074
398.132
398.196
398.265
398.34
398.42
398.505
398.596
398.693
398.795
398.902
399.015
399.133
399.256
399.384
399.517
399.653
399.794
399.938
400.085
400.234
400.385
400.537
400.69
400.842
400.994
401.144
401.292
401.437
401.578
401.715
401.848
401.975
402.097
402.212
402.321
402.423
402.519
402.607
402.689
402.764
402.832
402.895
402.951
403.001
403.046
403.086
403.12
403.151
403.177
403.199
403.217
412.682
411.912
410.986
410.122
409.431
408.909
408.488
408.106
407.726
407.338
406.943
406.549
406.159
405.775
405.396
405.022
404.654
404.294
403.945
403.61
403.292
402.992
402.714
402.459
402.227
402.019
401.835
401.673
401.531
401.408
401.3
401.205
401.121
401.045
400.975
400.909
400.845
400.784
400.723
400.662
400.6
400.537
400.472
400.407
400.34
400.272
400.202
400.132
400.06
399.988
399.916
399.843
399.77
399.697
399.625
399.552
399.48
399.409
399.338
399.268
399.199
399.131
399.063
398.997
398.932
398.868
398.805
398.743
398.683
398.624
398.566
398.51
398.455
398.402
398.351
398.3
398.252
398.205
398.161
398.118
398.076
398.037
398
397.965
397.932
397.902
397.874
397.848
397.825
397.805
397.787
397.772
397.761
397.752
397.747
397.745
397.746
397.751
397.76
397.772
397.789
397.81
397.835
397.865
397.899
397.938
397.981
398.03
398.084
398.143
398.207
398.276
398.352
398.432
398.518
398.61
398.708
398.811
398.919
399.033
399.152
399.276
399.405
399.538
399.676
399.817
399.962
400.11
400.26
400.411
400.564
400.717
400.869
401.02
401.17
401.317
401.461
401.601
401.737
401.868
401.994
402.115
402.23
402.338
402.439
402.534
402.621
402.701
402.775
402.843
402.904
402.959
403.008
403.052
403.09
403.124
403.154
403.179
403.2
403.218
411.378
411.028
410.499
409.887
409.295
408.781
408.348
407.968
407.607
407.246
406.878
406.506
406.134
405.767
405.404
405.048
404.699
404.359
404.028
403.71
403.407
403.12
402.851
402.601
402.373
402.165
401.977
401.81
401.66
401.528
401.409
401.304
401.209
401.123
401.043
400.968
400.897
400.828
400.76
400.692
400.625
400.557
400.489
400.421
400.351
400.281
400.21
400.138
400.066
399.994
399.921
399.848
399.774
399.701
399.628
399.556
399.484
399.412
399.341
399.271
399.202
399.134
399.066
399
398.934
398.87
398.807
398.745
398.684
398.625
398.567
398.511
398.455
398.402
398.35
398.299
398.251
398.204
398.158
398.115
398.073
398.034
397.996
397.961
397.928
397.897
397.868
397.842
397.818
397.797
397.779
397.764
397.751
397.742
397.736
397.733
397.733
397.738
397.746
397.757
397.773
397.793
397.817
397.846
397.879
397.917
397.96
398.007
398.06
398.118
398.182
398.25
398.325
398.404
398.49
398.581
398.678
398.78
398.888
399.002
399.121
399.245
399.374
399.508
399.646
399.788
399.934
400.083
400.235
400.389
400.544
400.7
400.855
401.01
401.163
401.314
401.461
401.605
401.744
401.879
402.007
402.129
402.244
402.352
402.453
402.546
402.632
402.712
402.786
402.854
402.915
402.97
403.019
403.062
403.1
403.133
403.161
403.186
403.206
403.223
410.474
410.282
409.949
409.514
409.039
408.583
408.172
407.804
407.461
407.124
406.784
406.439
406.091
405.745
405.402
405.066
404.737
404.416
404.104
403.803
403.514
403.24
402.981
402.74
402.516
402.309
402.121
401.95
401.796
401.656
401.53
401.416
401.311
401.215
401.126
401.042
400.962
400.885
400.81
400.736
400.663
400.591
400.519
400.446
400.374
400.301
400.228
400.154
400.08
400.006
399.932
399.858
399.784
399.71
399.636
399.563
399.49
399.418
399.347
399.276
399.206
399.137
399.069
399.002
398.937
398.872
398.808
398.746
398.684
398.625
398.566
398.509
398.453
398.399
398.346
398.295
398.245
398.198
398.151
398.107
398.065
398.024
397.985
397.949
397.915
397.883
397.853
397.825
397.801
397.778
397.759
397.742
397.728
397.717
397.709
397.705
397.703
397.706
397.712
397.722
397.735
397.753
397.775
397.801
397.832
397.867
397.907
397.952
398.002
398.058
398.118
398.184
398.255
398.332
398.414
398.503
398.596
398.696
398.801
398.912
399.028
399.15
399.277
399.409
399.546
399.687
399.833
399.982
400.134
400.289
400.445
400.604
400.763
400.921
401.079
401.236
401.389
401.54
401.687
401.829
401.966
402.096
402.22
402.337
402.446
402.547
402.639
402.723
402.799
402.866
402.926
402.98
403.027
403.07
403.109
403.143
403.172
403.196
403.215
403.232
409.788
409.663
409.435
409.118
408.747
408.362
407.991
407.646
407.321
407.005
406.689
406.369
406.045
405.72
405.398
405.081
404.77
404.466
404.171
403.886
403.611
403.348
403.099
402.865
402.645
402.442
402.254
402.081
401.923
401.778
401.645
401.523
401.411
401.307
401.209
401.117
401.03
400.946
400.864
400.784
400.706
400.628
400.552
400.475
400.399
400.324
400.248
400.172
400.096
400.02
399.945
399.869
399.794
399.719
399.645
399.571
399.497
399.425
399.352
399.281
399.211
399.141
399.072
399.005
398.938
398.873
398.808
398.745
398.683
398.623
398.563
398.505
398.449
398.393
398.34
398.287
398.237
398.188
398.14
398.095
398.051
398.009
397.969
397.931
397.895
397.862
397.83
397.801
397.774
397.75
397.728
397.709
397.693
397.679
397.669
397.662
397.658
397.657
397.66
397.667
397.677
397.691
397.709
397.732
397.758
397.789
397.825
397.865
397.911
397.961
398.016
398.076
398.142
398.213
398.29
398.372
398.46
398.554
398.653
398.757
398.867
398.983
399.104
399.23
399.362
399.498
399.638
399.783
399.931
400.083
400.237
400.394
400.552
400.711
400.871
401.03
401.189
401.346
401.501
401.653
401.8
401.944
402.082
402.213
402.338
402.455
402.564
402.664
402.756
402.839
402.913
402.978
403.034
403.08
403.119
403.151
403.178
403.201
403.222
403.241
409.241
409.151
408.984
408.746
408.455
408.135
407.809
407.493
407.188
406.892
406.596
406.298
405.996
405.693
405.39
405.091
404.796
404.508
404.228
403.956
403.693
403.441
403.201
402.973
402.758
402.558
402.37
402.196
402.035
401.886
401.749
401.621
401.502
401.391
401.287
401.188
401.093
401.003
400.915
400.83
400.747
400.665
400.584
400.504
400.425
400.346
400.268
400.19
400.112
400.035
399.957
399.881
399.804
399.728
399.653
399.578
399.504
399.43
399.357
399.285
399.214
399.144
399.075
399.006
398.939
398.873
398.808
398.744
398.681
398.619
398.559
398.5
398.442
398.386
398.331
398.277
398.226
398.175
398.127
398.079
398.034
397.991
397.949
397.909
397.871
397.835
397.802
397.77
397.741
397.714
397.69
397.668
397.649
397.632
397.619
397.608
397.601
397.596
397.595
397.598
397.603
397.613
397.626
397.643
397.665
397.69
397.72
397.754
397.793
397.836
397.884
397.937
397.995
398.058
398.126
398.2
398.279
398.363
398.453
398.547
398.648
398.753
398.864
398.98
399.101
399.227
399.358
399.493
399.632
399.775
399.921
400.071
400.223
400.377
400.533
400.691
400.849
401.007
401.165
401.322
401.477
401.63
401.78
401.926
402.068
402.204
402.335
402.459
402.576
402.685
402.785
402.876
402.956
403.026
403.086
403.137
403.178
403.209
403.231
403.247
408.792
408.724
408.595
408.41
408.177
407.91
407.628
407.342
407.06
406.782
406.506
406.227
405.945
405.661
405.376
405.094
404.815
404.541
404.274
404.014
403.762
403.519
403.287
403.065
402.855
402.657
402.471
402.297
402.134
401.982
401.84
401.708
401.584
401.467
401.357
401.252
401.152
401.056
400.963
400.873
400.785
400.699
400.615
400.532
400.449
400.368
400.287
400.207
400.127
400.048
399.97
399.891
399.814
399.737
399.66
399.585
399.51
399.435
399.362
399.289
399.217
399.146
399.076
399.007
398.939
398.872
398.806
398.741
398.677
398.614
398.553
398.493
398.434
398.377
398.32
398.266
398.212
398.161
398.11
398.062
398.015
397.969
397.926
397.884
397.844
397.806
397.77
397.736
397.704
397.675
397.647
397.622
397.6
397.58
397.563
397.548
397.537
397.528
397.523
397.52
397.521
397.525
397.533
397.544
397.559
397.578
397.601
397.628
397.659
397.694
397.734
397.778
397.826
397.88
397.938
398.001
398.069
398.141
398.219
398.302
398.389
398.482
398.579
398.682
398.789
398.901
399.017
399.138
399.263
399.391
399.524
399.66
399.8
399.943
400.088
400.236
400.386
400.538
400.691
400.846
401.001
401.156
401.311
401.465
401.619
401.77
401.919
402.064
402.206
402.342
402.473
402.598
402.714
402.822
402.919
403.006
403.08
403.142
403.193
403.233
408.417
408.363
408.26
408.111
407.919
407.696
407.451
407.195
406.936
406.677
406.418
406.157
405.892
405.626
405.358
405.091
404.826
404.565
404.31
404.061
403.819
403.585
403.36
403.144
402.939
402.743
402.559
402.385
402.221
402.067
401.922
401.786
401.657
401.536
401.421
401.311
401.206
401.105
401.008
400.914
400.822
400.732
400.644
400.558
400.473
400.389
400.306
400.223
400.142
400.061
399.981
399.901
399.823
399.745
399.667
399.59
399.514
399.439
399.365
399.291
399.219
399.147
399.076
399.006
398.937
398.869
398.802
398.736
398.672
398.608
398.546
398.485
398.425
398.366
398.308
398.252
398.198
398.144
398.092
398.042
397.993
397.946
397.9
397.857
397.814
397.774
397.736
397.699
397.665
397.632
397.602
397.574
397.548
397.524
397.503
397.485
397.469
397.456
397.445
397.438
397.433
397.432
397.433
397.438
397.447
397.458
397.474
397.493
397.515
397.542
397.573
397.607
397.646
397.688
397.735
397.787
397.842
397.902
397.967
398.036
398.109
398.186
398.268
398.355
398.445
398.54
398.639
398.743
398.85
398.961
399.075
399.194
399.316
399.441
399.569
399.701
399.836
399.973
400.113
400.256
400.402
400.55
400.701
400.853
401.008
401.164
401.321
401.48
401.638
401.797
401.954
402.108
402.26
402.406
402.547
402.679
402.802
402.914
403.013
403.098
408.101
408.056
407.971
407.847
407.686
407.495
407.281
407.053
406.817
406.577
406.334
406.088
405.84
405.589
405.336
405.083
404.832
404.583
404.339
404.1
403.867
403.64
403.422
403.212
403.01
402.818
402.635
402.461
402.297
402.141
401.994
401.855
401.723
401.598
401.478
401.364
401.255
401.151
401.049
400.951
400.856
400.763
400.672
400.582
400.495
400.408
400.323
400.239
400.155
400.073
399.991
399.911
399.831
399.752
399.673
399.595
399.519
399.442
399.367
399.293
399.219
399.147
399.075
399.004
398.934
398.866
398.798
398.731
398.665
398.601
398.537
398.475
398.414
398.354
398.295
398.238
398.181
398.127
398.073
398.021
397.97
397.921
397.874
397.828
397.783
397.74
397.699
397.66
397.623
397.587
397.554
397.522
397.493
397.466
397.441
397.418
397.398
397.38
397.365
397.352
397.342
397.334
397.33
397.328
397.33
397.334
397.342
397.353
397.367
397.385
397.406
397.43
397.458
397.49
397.525
397.564
397.607
397.654
397.704
397.758
397.816
397.878
397.943
398.013
398.086
398.162
398.242
398.326
398.413
398.504
398.598
398.695
398.795
398.899
399.006
399.117
399.231
399.348
399.469
399.593
399.721
399.853
399.99
400.13
400.275
400.425
400.579
400.738
400.901
401.069
401.24
401.415
401.591
401.769
401.947
402.122
402.294
402.459
402.615
402.76
407.831
407.793
407.721
407.615
407.478
407.312
407.124
406.919
406.704
406.481
406.254
406.023
405.789
405.552
405.313
405.073
404.833
404.596
404.361
404.131
403.906
403.687
403.474
403.269
403.072
402.882
402.701
402.528
402.363
402.206
402.057
401.916
401.781
401.653
401.53
401.413
401.3
401.192
401.087
400.986
400.887
400.791
400.697
400.605
400.515
400.426
400.339
400.253
400.168
400.084
400.001
399.919
399.838
399.758
399.678
399.599
399.522
399.445
399.369
399.293
399.219
399.146
399.073
399.001
398.931
398.861
398.792
398.725
398.658
398.592
398.528
398.464
398.402
398.341
398.28
398.222
398.164
398.108
398.052
397.999
397.946
397.895
397.845
397.797
397.75
397.705
397.662
397.62
397.579
397.541
397.504
397.469
397.436
397.405
397.376
397.349
397.325
397.302
397.282
397.263
397.248
397.234
397.224
397.216
397.21
397.207
397.207
397.21
397.215
397.224
397.235
397.249
397.267
397.287
397.311
397.337
397.367
397.4
397.436
397.475
397.517
397.563
397.611
397.663
397.717
397.774
397.835
397.898
397.964
398.033
398.104
398.179
398.256
398.336
398.419
398.506
398.595
398.688
398.785
398.885
398.99
399.1
399.214
399.335
399.461
399.594
399.734
399.881
400.036
400.2
400.371
400.551
400.739
400.934
401.136
401.342
401.552
401.762
401.972
402.176
407.601
407.568
407.506
407.414
407.293
407.148
406.98
406.795
406.598
406.392
406.179
405.962
405.741
405.516
405.289
405.06
404.831
404.604
404.378
404.156
403.938
403.726
403.519
403.318
403.124
402.937
402.757
402.585
402.421
402.263
402.113
401.97
401.833
401.702
401.576
401.456
401.34
401.229
401.121
401.017
400.915
400.816
400.72
400.626
400.533
400.443
400.353
400.266
400.179
400.094
400.009
399.926
399.844
399.762
399.682
399.602
399.524
399.446
399.369
399.293
399.218
399.144
399.07
398.998
398.926
398.856
398.786
398.717
398.649
398.583
398.517
398.452
398.389
398.326
398.265
398.204
398.145
398.087
398.03
397.975
397.92
397.867
397.816
397.765
397.716
397.669
397.622
397.578
397.535
397.493
397.453
397.415
397.378
397.343
397.31
397.279
397.249
397.222
397.196
397.173
397.152
397.132
397.115
397.1
397.088
397.078
397.069
397.064
397.061
397.06
397.061
397.066
397.072
397.081
397.093
397.107
397.124
397.143
397.164
397.188
397.215
397.243
397.275
397.308
397.344
397.381
397.421
397.464
397.508
397.554
397.603
397.653
397.706
397.761
397.819
397.879
397.942
398.008
398.078
398.151
398.229
398.312
398.4
398.494
398.595
398.704
398.821
398.948
399.085
399.232
399.392
399.563
399.747
399.943
400.152
400.373
400.605
400.846
401.093
401.345
407.405
407.376
407.321
407.239
407.132
407.002
406.851
406.683
406.501
406.31
406.111
405.905
405.696
405.482
405.265
405.047
404.827
404.608
404.391
404.176
403.965
403.758
403.556
403.359
403.168
402.984
402.806
402.635
402.47
402.313
402.161
402.017
401.878
401.745
401.617
401.494
401.376
401.262
401.151
401.044
400.94
400.839
400.741
400.644
400.55
400.457
400.366
400.277
400.189
400.102
400.017
399.932
399.849
399.766
399.685
399.604
399.525
399.446
399.368
399.292
399.216
399.14
399.066
398.993
398.92
398.849
398.778
398.709
398.64
398.572
398.505
398.439
398.375
398.311
398.248
398.186
398.125
398.066
398.007
397.95
397.894
397.839
397.785
397.732
397.681
397.63
397.582
397.534
397.488
397.443
397.4
397.358
397.318
397.279
397.242
397.207
397.173
397.14
397.11
397.081
397.054
397.029
397.005
396.983
396.964
396.946
396.93
396.916
396.904
396.894
396.886
396.88
396.875
396.873
396.873
396.874
396.878
396.883
396.89
396.899
396.909
396.921
396.935
396.95
396.967
396.985
397.005
397.026
397.048
397.071
397.096
397.122
397.15
397.179
397.21
397.243
397.278
397.316
397.356
397.401
397.449
397.501
397.56
397.624
397.696
397.775
397.864
397.963
398.074
398.197
398.335
398.487
398.654
398.839
399.041
399.26
399.496
399.749
400.018
400.299
407.238
407.212
407.162
407.089
406.992
406.874
406.737
406.582
406.415
406.236
406.048
405.854
405.654
405.45
405.243
405.033
404.822
404.611
404.4
404.192
403.986
403.784
403.586
403.393
403.205
403.023
402.847
402.677
402.513
402.355
402.203
402.057
401.917
401.782
401.652
401.527
401.407
401.29
401.178
401.069
400.963
400.859
400.759
400.66
400.564
400.47
400.378
400.287
400.197
400.109
400.023
399.937
399.853
399.769
399.687
399.605
399.525
399.445
399.367
399.289
399.212
399.136
399.061
398.987
398.914
398.841
398.77
398.699
398.629
398.56
398.492
398.425
398.359
398.294
398.23
398.167
398.104
398.043
397.983
397.924
397.866
397.809
397.753
397.698
397.644
397.591
397.54
397.489
397.44
397.393
397.346
397.301
397.257
397.214
397.173
397.133
397.094
397.057
397.021
396.987
396.954
396.923
396.893
396.865
396.838
396.813
396.789
396.767
396.746
396.726
396.708
396.692
396.677
396.663
396.651
396.64
396.63
396.622
396.614
396.608
396.602
396.598
396.594
396.591
396.589
396.587
396.586
396.585
396.585
396.585
396.586
396.587
396.589
396.592
396.596
396.6
396.606
396.614
396.625
396.638
396.654
396.675
396.701
396.732
396.771
396.818
396.874
396.941
397.021
397.114
397.222
397.346
397.489
397.652
397.835
398.039
398.267
398.516
398.788
399.081
407.097
407.073
407.028
406.961
406.873
406.764
406.637
406.495
406.338
406.17
405.992
405.807
405.617
405.421
405.221
405.019
404.815
404.611
404.407
404.204
404.003
403.805
403.611
403.422
403.236
403.056
402.881
402.712
402.548
402.39
402.238
402.091
401.95
401.814
401.682
401.556
401.433
401.315
401.201
401.09
400.982
400.877
400.774
400.674
400.577
400.481
400.387
400.295
400.204
400.115
400.027
399.941
399.855
399.771
399.688
399.605
399.524
399.444
399.364
399.286
399.208
399.131
399.055
398.98
398.906
398.833
398.76
398.689
398.618
398.548
398.479
398.41
398.343
398.277
398.211
398.146
398.082
398.02
397.958
397.897
397.837
397.777
397.719
397.662
397.606
397.551
397.497
397.444
397.392
397.341
397.291
397.242
397.194
397.148
397.102
397.058
397.015
396.973
396.932
396.892
396.854
396.816
396.78
396.745
396.711
396.678
396.646
396.616
396.586
396.557
396.53
396.503
396.477
396.452
396.428
396.404
396.381
396.359
396.337
396.315
396.294
396.273
396.251
396.23
396.209
396.187
396.165
396.143
396.12
396.097
396.073
396.049
396.025
396.001
395.976
395.952
395.928
395.905
395.884
395.865
395.848
395.835
395.826
395.823
395.826
395.837
395.858
395.889
395.933
395.99
396.064
396.156
396.267
396.4
396.556
396.737
396.944
397.178
397.44
397.729
406.98
406.958
406.916
406.854
406.772
406.672
406.553
406.419
406.272
406.113
405.944
405.767
405.584
405.395
405.202
405.007
404.809
404.61
404.411
404.213
404.016
403.822
403.632
403.444
403.261
403.083
402.909
402.741
402.578
402.42
402.267
402.12
401.978
401.84
401.708
401.58
401.456
401.336
401.22
401.107
400.998
400.891
400.787
400.686
400.587
400.49
400.394
400.301
400.209
400.119
400.03
399.943
399.856
399.771
399.687
399.604
399.522
399.441
399.361
399.281
399.203
399.125
399.049
398.973
398.898
398.823
398.75
398.677
398.605
398.534
398.464
398.395
398.326
398.258
398.191
398.125
398.06
397.995
397.931
397.869
397.807
397.745
397.685
397.626
397.567
397.509
397.453
397.397
397.342
397.288
397.234
397.182
397.131
397.08
397.031
396.982
396.934
396.887
396.841
396.796
396.752
396.708
396.666
396.624
396.583
396.542
396.503
396.464
396.425
396.388
396.35
396.313
396.277
396.24
396.204
396.168
396.132
396.096
396.059
396.022
395.985
395.947
395.908
395.868
395.828
395.786
395.743
395.699
395.654
395.607
395.559
395.509
395.458
395.406
395.352
395.298
395.244
395.189
395.135
395.082
395.031
394.982
394.937
394.896
394.861
394.834
394.816
394.808
394.813
394.832
394.867
394.921
394.996
395.093
395.216
395.366
395.545
395.755
395.996
396.271
406.885
406.865
406.825
406.767
406.69
406.595
406.484
406.357
406.216
406.064
405.903
405.732
405.555
405.373
405.186
404.995
404.802
404.608
404.414
404.219
404.027
403.836
403.647
403.463
403.281
403.105
402.932
402.764
402.601
402.444
402.291
402.143
402
401.862
401.728
401.599
401.474
401.353
401.235
401.121
401.01
400.902
400.797
400.695
400.594
400.496
400.4
400.306
400.213
400.122
400.032
399.944
399.856
399.77
399.686
399.602
399.519
399.437
399.356
399.276
399.197
399.118
399.041
398.964
398.888
398.813
398.738
398.665
398.592
398.52
398.448
398.378
398.308
398.239
398.17
398.103
398.036
397.97
397.904
397.84
397.776
397.713
397.65
397.588
397.527
397.467
397.408
397.349
397.291
397.234
397.177
397.121
397.066
397.012
396.958
396.905
396.853
396.801
396.75
396.699
396.649
396.6
396.551
396.502
396.454
396.406
396.359
396.311
396.264
396.217
396.17
396.123
396.076
396.028
395.98
395.931
395.882
395.832
395.781
395.729
395.675
395.621
395.564
395.506
395.447
395.385
395.321
395.255
395.186
395.116
395.042
394.967
394.888
394.808
394.725
394.641
394.554
394.467
394.379
394.29
394.203
394.116
394.033
393.953
393.878
393.81
393.749
393.699
393.662
393.638
393.631
393.643
393.677
393.734
393.819
393.932
394.077
394.256
394.47
394.722
406.81
406.791
406.754
406.698
406.625
406.535
406.428
406.307
406.172
406.026
405.869
405.704
405.532
405.355
405.172
404.986
404.797
404.606
404.415
404.224
404.034
403.845
403.659
403.476
403.297
403.121
402.949
402.782
402.62
402.462
402.309
402.161
402.017
401.878
401.744
401.614
401.488
401.365
401.247
401.132
401.02
400.911
400.805
400.701
400.6
400.501
400.404
400.308
400.215
400.123
400.032
399.943
399.855
399.768
399.683
399.598
399.515
399.432
399.35
399.27
399.19
399.111
399.032
398.955
398.878
398.802
398.726
398.652
398.578
398.505
398.432
398.36
398.289
398.219
398.149
398.08
398.011
397.944
397.876
397.81
397.744
397.679
397.614
397.55
397.487
397.424
397.362
397.301
397.24
397.179
397.119
397.06
397.001
396.943
396.885
396.828
396.771
396.714
396.658
396.602
396.546
396.49
396.435
396.38
396.325
396.269
396.214
396.159
396.103
396.047
395.99
395.933
395.875
395.816
395.756
395.695
395.632
395.569
395.503
395.436
395.367
395.295
395.221
395.145
395.066
394.984
394.899
394.811
394.719
394.624
394.525
394.423
394.317
394.208
394.095
393.979
393.86
393.739
393.615
393.49
393.364
393.239
393.115
392.993
392.875
392.763
392.658
392.562
392.479
392.409
392.355
392.321
392.309
392.322
392.363
392.435
392.541
392.683
392.864
393.087
406.755
406.737
406.701
406.648
406.577
406.49
406.387
406.269
406.139
405.997
405.844
405.683
405.515
405.34
405.161
404.978
404.792
404.604
404.416
404.227
404.039
403.852
403.668
403.486
403.308
403.133
402.962
402.795
402.633
402.475
402.322
402.173
402.029
401.89
401.755
401.624
401.497
401.374
401.255
401.139
401.026
400.916
400.809
400.705
400.603
400.503
400.405
400.309
400.215
400.122
400.031
399.941
399.853
399.765
399.679
399.594
399.509
399.426
399.344
399.262
399.182
399.102
399.023
398.944
398.867
398.79
398.713
398.638
398.563
398.489
398.415
398.342
398.27
398.198
398.127
398.056
397.986
397.917
397.848
397.78
397.712
397.645
397.578
397.512
397.446
397.381
397.316
397.251
397.188
397.124
397.061
396.998
396.935
396.873
396.811
396.75
396.688
396.627
396.565
396.504
396.442
396.381
396.319
396.258
396.195
396.133
396.07
396.006
395.942
395.876
395.81
395.743
395.674
395.604
395.532
395.459
395.384
395.306
395.226
395.144
395.059
394.971
394.88
394.785
394.687
394.584
394.478
394.368
394.253
394.133
394.009
393.88
393.746
393.607
393.463
393.315
393.162
393.006
392.845
392.682
392.517
392.35
392.183
392.017
391.853
391.694
391.541
391.396
391.262
391.142
391.038
390.953
390.89
390.854
390.847
390.872
390.933
391.034
391.178
391.366
406.719
406.701
406.666
406.614
406.545
406.46
406.359
406.244
406.116
405.977
405.827
405.669
405.503
405.331
405.154
404.973
404.789
404.603
404.416
404.228
404.042
403.856
403.673
403.492
403.314
403.14
402.969
402.803
402.641
402.483
402.33
402.181
402.037
401.897
401.762
401.63
401.503
401.379
401.259
401.143
401.029
400.919
400.811
400.706
400.604
400.503
400.405
400.308
400.213
400.12
400.028
399.938
399.849
399.761
399.674
399.588
399.503
399.419
399.336
399.254
399.173
399.092
399.012
398.933
398.855
398.777
398.7
398.623
398.547
398.472
398.397
398.323
398.249
398.176
398.104
398.032
397.96
397.889
397.819
397.749
397.679
397.61
397.541
397.472
397.404
397.336
397.269
397.202
397.135
397.068
397.002
396.936
396.869
396.803
396.737
396.671
396.605
396.539
396.473
396.406
396.339
396.272
396.204
396.135
396.066
395.996
395.926
395.854
395.781
395.706
395.631
395.553
395.474
395.393
395.31
395.224
395.136
395.045
394.951
394.854
394.753
394.648
394.54
394.427
394.309
394.187
394.059
393.926
393.788
393.643
393.493
393.337
393.174
393.005
392.83
392.649
392.461
392.268
392.07
391.867
391.66
391.45
391.237
391.025
390.812
390.603
390.398
390.2
390.012
389.837
389.677
389.536
389.418
389.326
389.265
389.239
389.25
389.304
389.404
389.554
406.7
406.683
406.648
406.597
406.529
406.445
406.345
406.231
406.105
405.967
405.818
405.661
405.497
405.326
405.15
404.97
404.786
404.601
404.415
404.229
404.043
403.858
403.675
403.495
403.317
403.143
402.973
402.806
402.644
402.486
402.333
402.184
402.04
401.9
401.764
401.632
401.504
401.38
401.26
401.143
401.029
400.919
400.811
400.705
400.602
400.501
400.402
400.305
400.21
400.116
400.024
399.933
399.843
399.755
399.667
399.581
399.496
399.411
399.328
399.245
399.163
399.082
399.001
398.921
398.842
398.763
398.685
398.608
398.531
398.455
398.379
398.303
398.229
398.154
398.08
398.007
397.934
397.861
397.789
397.717
397.645
397.574
397.503
397.433
397.362
397.292
397.222
397.152
397.082
397.012
396.943
396.873
396.803
396.733
396.663
396.593
396.522
396.451
396.38
396.308
396.236
396.162
396.088
396.014
395.938
395.86
395.782
395.702
395.621
395.538
395.453
395.365
395.276
395.184
395.089
394.992
394.891
394.786
394.678
394.566
394.449
394.328
394.202
394.071
393.934
393.792
393.643
393.487
393.325
393.156
392.98
392.796
392.604
392.405
392.197
391.982
391.759
391.529
391.291
391.046
390.796
390.54
390.28
390.017
389.753
389.49
389.229
388.974
388.727
388.491
388.27
388.068
387.888
387.736
387.614
387.529
387.485
387.486
387.537
387.642
406.7
406.682
406.648
406.596
406.528
406.444
406.345
406.231
406.104
405.966
405.818
405.661
405.496
405.325
405.149
404.969
404.786
404.601
404.414
404.228
404.042
403.857
403.674
403.493
403.316
403.142
402.971
402.805
402.643
402.485
402.331
402.182
402.038
401.898
401.762
401.63
401.502
401.378
401.257
401.14
401.026
400.915
400.807
400.701
400.598
400.497
400.397
400.3
400.205
400.11
400.018
399.927
399.837
399.748
399.66
399.573
399.487
399.402
399.318
399.235
399.152
399.07
398.989
398.908
398.828
398.749
398.67
398.592
398.514
398.436
398.36
398.283
398.207
398.131
398.056
397.981
397.907
397.833
397.759
397.685
397.612
397.538
397.465
397.393
397.32
397.247
397.174
397.102
397.029
396.956
396.883
396.81
396.737
396.663
396.589
396.515
396.44
396.364
396.288
396.211
396.133
396.054
395.974
395.892
395.81
395.726
395.64
395.552
395.462
395.37
395.276
395.179
395.08
394.977
394.871
394.761
394.647
394.53
394.408
394.281
394.149
394.011
393.868
393.719
393.563
393.4
393.23
393.052
392.867
392.673
392.47
392.258
392.037
391.806
391.566
391.316
391.057
390.787
390.509
390.221
389.925
389.622
389.311
388.996
388.677
388.356
388.035
387.718
387.406
387.105
386.817
386.546
386.298
386.077
385.888
385.738
385.63
385.571
385.567
385.621
406.717
406.699
406.664
406.612
406.544
406.458
406.358
406.243
406.115
405.975
405.825
405.667
405.501
405.329
405.152
404.97
404.786
404.6
404.413
404.226
404.039
403.853
403.67
403.489
403.311
403.136
402.965
402.799
402.636
402.478
402.325
402.176
402.031
401.891
401.755
401.623
401.495
401.371
401.251
401.134
401.02
400.909
400.801
400.695
400.591
400.49
400.391
400.293
400.198
400.103
400.011
399.919
399.829
399.74
399.651
399.564
399.478
399.393
399.308
399.224
399.141
399.058
398.976
398.895
398.814
398.734
398.654
398.575
398.496
398.418
398.34
398.262
398.185
398.108
398.032
397.955
397.879
397.804
397.728
397.653
397.577
397.502
397.427
397.352
397.277
397.202
397.127
397.052
396.976
396.9
396.824
396.748
396.671
396.594
396.516
396.437
396.358
396.277
396.196
396.114
396.031
395.946
395.86
395.772
395.683
395.592
395.499
395.403
395.305
395.205
395.102
394.995
394.885
394.772
394.655
394.533
394.407
394.277
394.141
393.999
393.852
393.699
393.538
393.371
393.196
393.013
392.822
392.622
392.413
392.194
391.964
391.724
391.474
391.212
390.938
390.653
390.356
390.047
389.726
389.393
389.05
388.696
388.333
387.962
387.584
387.201
386.816
386.431
386.05
385.676
385.314
384.968
384.644
384.346
384.082
383.857
383.677
383.55
383.482
383.478
406.753
406.734
406.699
406.645
406.575
406.487
406.384
406.267
406.136
405.994
405.841
405.68
405.512
405.337
405.158
404.975
404.788
404.6
404.412
404.223
404.034
403.847
403.663
403.481
403.302
403.126
402.955
402.788
402.625
402.467
402.313
402.164
402.02
401.88
401.744
401.612
401.485
401.361
401.241
401.124
401.01
400.9
400.791
400.686
400.583
400.481
400.382
400.285
400.189
400.095
400.002
399.91
399.82
399.73
399.642
399.554
399.468
399.382
399.297
399.212
399.129
399.045
398.963
398.881
398.799
398.718
398.638
398.558
398.478
398.399
398.32
398.241
398.163
398.085
398.007
397.929
397.852
397.774
397.697
397.62
397.543
397.466
397.389
397.312
397.234
397.157
397.079
397.001
396.923
396.844
396.765
396.685
396.605
396.524
396.442
396.36
396.276
396.191
396.105
396.018
395.93
395.839
395.747
395.654
395.558
395.46
395.359
395.256
395.15
395.042
394.929
394.814
394.694
394.57
394.442
394.309
394.171
394.027
393.878
393.722
393.56
393.39
393.213
393.028
392.835
392.632
392.42
392.197
391.964
391.72
391.465
391.197
390.916
390.622
390.315
389.993
389.658
389.308
388.944
388.565
388.173
387.767
387.348
386.917
386.477
386.028
385.573
385.115
384.658
384.205
383.761
383.331
382.922
382.538
382.188
381.879
381.618
381.413
381.271
381.201
406.807
406.788
406.751
406.695
406.622
406.531
406.425
406.303