/*--------------------------------*- C++ -*----------------------------------*\
| =========                 |                                                 |
| \\      /  F ield         | OpenFOAM: The Open Source CFD Toolbox           |
|  \\    /   O peration     | Version:  2306                                  |
|   \\  /    A nd           | Website:  www.openfoam.com                      |
|    \\/     M anipulation  |                                                 |
\*---------------------------------------------------------------------------*/
FoamFile
{
    version     2.0;
    format      ascii;
    arch        "LSB;label=32;scalar=64";
    class       surfaceScalarField;
    location    "0.425";
    object      phi;
}
// * * * * * * * * * * * * * * * * * * * * * * * * * * * * * * * * * * * * * //

dimensions      [0 3 -1 0 0 0 0];

oriented        oriented;

internalField   nonuniform List<scalar> 
34640
(
0.0049244
7.55987e-05
0.00478599
0.000138414
0.00463052
0.000155467
0.00447385
0.000156669
0.00431583
0.000158023
0.00415467
0.000161162
0.00399075
0.00016392
0.00382542
0.00016533
0.00366031
0.000165105
0.00349681
0.000163498
0.00333583
0.000160981
0.00317797
0.000157867
0.00302375
0.000154218
0.00287376
0.000149992
0.00272862
0.000145136
0.00258899
0.000139631
0.00245555
0.000133441
0.0023289
0.00012665
0.00220941
0.00011949
0.00209747
0.000111938
0.00199339
0.000104075
0.00189738
9.60091e-05
0.00180952
8.78646e-05
0.00172975
7.97701e-05
0.0016579
7.1853e-05
0.00159366
6.42325e-05
0.00153665
5.70128e-05
0.00148637
5.0279e-05
0.00144228
4.40932e-05
0.00140378
3.84953e-05
0.00137028
3.35016e-05
0.00134117
2.91095e-05
0.00131587
2.52982e-05
0.00129384
2.20352e-05
0.00127456
1.92779e-05
0.00125758
1.6978e-05
0.0012425
1.50804e-05
0.00122898
1.35217e-05
0.00121673
1.22518e-05
0.0012055
1.12305e-05
0.00119508
1.04208e-05
0.00118529
9.78755e-06
0.00117599
9.29798e-06
0.00116707
8.92305e-06
0.00115843
8.63799e-06
0.00115001
8.4222e-06
0.00114175
8.25884e-06
0.00113362
8.13436e-06
0.00112558
8.03791e-06
0.00111762
7.96097e-06
0.00110972
7.89697e-06
0.00110188
7.84097e-06
0.00109409
7.78937e-06
0.00108635
7.73965e-06
0.00107866
7.6902e-06
0.00107102
7.64004e-06
0.00106343
7.58874e-06
0.0010559
7.53625e-06
0.00104841
7.4828e-06
0.00104098
7.42883e-06
0.00103361
7.37489e-06
0.00102629
7.32164e-06
0.00101902
7.26977e-06
0.0010118
7.21998e-06
0.00100462
7.17299e-06
0.000997495
7.12949e-06
0.000990405
7.09013e-06
0.00098335
7.05555e-06
0.000976323
7.02634e-06
0.00096932
7.00303e-06
0.000962334
6.98614e-06
0.000955358
6.97611e-06
0.000948385
6.97336e-06
0.000941406
6.97833e-06
0.000934415
6.99143e-06
0.000927402
7.01307e-06
0.000920358
7.04365e-06
0.000913275
7.08356e-06
0.000906141
7.13315e-06
0.000898949
7.1928e-06
0.000891686
7.26288e-06
0.000884342
7.34376e-06
0.000876906
7.4358e-06
0.000869367
7.53939e-06
0.000861712
7.65492e-06
0.000853929
7.78277e-06
0.000846006
7.92335e-06
0.000837929
8.07706e-06
0.000829684
8.24432e-06
0.000821259
8.42554e-06
0.000812638
8.62113e-06
0.000803806
8.83153e-06
0.000794749
9.05715e-06
0.000785451
9.29838e-06
0.000775895
9.55563e-06
0.000766066
9.82927e-06
0.000755946
1.01196e-05
0.000745519
1.0427e-05
0.000734767
1.07517e-05
0.000723674
1.10938e-05
0.00071222
1.14536e-05
0.000700389
1.18309e-05
0.000688163
1.22258e-05
0.000675525
1.26378e-05
0.000662459
1.30668e-05
0.000648946
1.35123e-05
0.000634973
1.39736e-05
0.000620523
1.44497e-05
0.000605584
1.49393e-05
0.000590143
1.5441e-05
0.00057419
1.59528e-05
0.000557718
1.64725e-05
0.00054072
1.69977e-05
0.000523195
1.7525e-05
0.000505144
1.80509e-05
0.000486573
1.85713e-05
0.000467491
1.90813e-05
0.000447916
1.95758e-05
0.000427867
2.00489e-05
0.000407372
2.04944e-05
0.000386467
2.09052e-05
0.000365193
2.12742e-05
0.000343599
2.15935e-05
0.000321744
2.18555e-05
0.000299692
2.20523e-05
0.000277515
2.21763e-05
0.000255295
2.22204e-05
0.000233117
2.21785e-05
0.000211071
2.20453e-05
0.000189254
2.18171e-05
0.000167763
2.14917e-05
0.000146694
2.10683e-05
0.000126147
2.05476e-05
0.000106215
1.99313e-05
8.69937e-05
1.92216e-05
6.85737e-05
1.842e-05
5.10466e-05
1.7527e-05
3.4504e-05
1.65426e-05
1.90359e-05
1.54681e-05
4.72549e-06
1.43104e-05
-8.36552e-06
1.3091e-05
-2.01988e-05
1.18333e-05
-3.07766e-05
1.05778e-05
-4.01481e-05
9.37141e-06
-4.83951e-05
8.24708e-06
-5.56026e-05
7.20748e-06
-6.18244e-05
6.22171e-06
-6.70696e-05
5.24525e-06
-7.13181e-05
4.24845e-06
-7.45689e-05
3.25078e-06
-7.69062e-05
2.33728e-06
-7.84968e-05
1.5906e-06
-7.95091e-05
1.01228e-06
-8.0008e-05
4.98871e-07
-7.99886e-05
-1.94376e-08
-7.94885e-05
-5.00121e-07
-7.86271e-05
-8.61387e-07
-7.74786e-05
-1.14846e-06
-7.59826e-05
-1.49603e-06
-1.98213e-06
-7.40005e-05
0.00503752
3.80749e-05
0.0050774
9.85349e-05
0.00509715
0.00013572
0.00510102
0.000152795
0.00509795
0.000161096
0.00509063
0.000168478
0.0050778
0.000176757
0.00505833
0.000184798
0.00503218
0.000191259
0.005
0.000195672
0.00496268
0.000198302
0.00492096
0.000199591
0.00487537
0.000199809
0.00482632
0.000199042
0.00477418
0.000197272
0.00471935
0.000194459
0.0046622
0.000190593
0.00460311
0.000185743
0.00454259
0.000180008
0.00448107
0.000173463
0.00441894
0.000166199
0.00435661
0.000158337
0.00429446
0.000150019
0.00423283
0.000141402
0.00417204
0.000132645
0.00411237
0.000123903
0.00405406
0.000115321
0.00399731
0.000107027
0.00394228
9.91252e-05
0.00388907
9.16993e-05
0.00383777
8.4805e-05
0.0037884
7.84768e-05
0.00374098
7.2725e-05
0.00369547
6.75449e-05
0.00365183
6.29142e-05
0.00361
5.88122e-05
0.00356983
5.52445e-05
0.0035313
5.20498e-05
0.00349433
4.9221e-05
0.00345883
4.67341e-05
0.0034247
4.45512e-05
0.00339185
4.26345e-05
0.0033602
4.09482e-05
0.00332967
3.94593e-05
0.00330017
3.81384e-05
0.00327163
3.69597e-05
0.00324399
3.5901e-05
0.00321718
3.49435e-05
0.00319114
3.40712e-05
0.00316583
3.32707e-05
0.0031412
3.25309e-05
0.0031172
3.18427e-05
0.00309379
3.11989e-05
0.00307094
3.05937e-05
0.0030486
3.00225e-05
0.00302676
2.94818e-05
0.00300538
2.8969e-05
0.00298444
2.84821e-05
0.0029639
2.80198e-05
0.00294375
2.75811e-05
0.00292396
2.71653e-05
0.0029045
2.67723e-05
0.00288537
2.64017e-05
0.00286654
2.60538e-05
0.00284798
2.57287e-05
0.00282969
2.54266e-05
0.00281163
2.5148e-05
0.00279379
2.48932e-05
0.00277615
2.46628e-05
0.0027587
2.44572e-05
0.00274141
2.42768e-05
0.00272426
2.41222e-05
0.00270724
2.39938e-05
0.00269033
2.38922e-05
0.0026735
2.3818e-05
0.00265674
2.37721e-05
0.00264003
2.37551e-05
0.00262335
2.37678e-05
0.00260667
2.38109e-05
0.00258998
2.38854e-05
0.00257325
2.39921e-05
0.00255646
2.41319e-05
0.00253959
2.4306e-05
0.00252261
2.45152e-05
0.00250551
2.47609e-05
0.00248825
2.50441e-05
0.0024708
2.53661e-05
0.00245315
2.57282e-05
0.00243526
2.61319e-05
0.00241711
2.65786e-05
0.00239866
2.70699e-05
0.00237989
2.76072e-05
0.00236075
2.81923e-05
0.00234122
2.88269e-05
0.00232127
2.95127e-05
0.00230084
3.02515e-05
0.00227992
3.10452e-05
0.00225845
3.18956e-05
0.0022364
3.28045e-05
0.00221372
3.37737e-05
0.00219037
3.48051e-05
0.0021663
3.59004e-05
0.00214146
3.7061e-05
0.00211581
3.82884e-05
0.00208929
3.95829e-05
0.00206186
4.09469e-05
0.00203345
4.23813e-05
0.00200402
4.38861e-05
0.00197349
4.54613e-05
0.00194183
4.71063e-05
0.00190896
4.88204e-05
0.00187483
5.06021e-05
0.00183938
5.24488e-05
0.00180255
5.43567e-05
0.00176428
5.63214e-05
0.00172451
5.83368e-05
0.0016832
6.03957e-05
0.00164029
6.24893e-05
0.00159573
6.46069e-05
0.00154949
6.67361e-05
0.00150153
6.88621e-05
0.00145183
7.0968e-05
0.00140039
7.30342e-05
0.00134721
7.50386e-05
0.00129231
7.69562e-05
0.00123572
7.87592e-05
0.00117753
8.04167e-05
0.00111781
8.18952e-05
0.0010567
8.31581e-05
0.000994349
8.41665e-05
0.000930961
8.48793e-05
0.000866775
8.52545e-05
0.000802073
8.52499e-05
0.000737179
8.4825e-05
0.000672458
8.39427e-05
0.000608306
8.25725e-05
0.00054514
8.06926e-05
0.000483388
7.82948e-05
0.000423467
7.53887e-05
0.000365772
7.20061e-05
0.000310658
6.82047e-05
0.000258429
6.40626e-05
0.000209332
5.96748e-05
0.000163562
5.5141e-05
0.000121264
5.05455e-05
8.25269e-05
4.59441e-05
4.7372e-05
4.13765e-05
1.57752e-05
3.68421e-05
-1.21712e-05
3.21948e-05
-3.65925e-05
2.7672e-05
-5.76813e-05
2.34261e-05
-7.58351e-05
1.97444e-05
-9.12838e-05
1.64609e-05
-0.000104156
1.33711e-05
-0.000114575
1.03993e-05
-0.00012276
7.68555e-06
-0.000129028
5.40606e-06
-0.000133619
3.44234e-06
-0.000136582
1.46739e-06
-6.76088e-07
-0.000137888
0.00501445
2.36272e-05
0.00504447
6.85094e-05
0.00507418
0.000106011
0.00509859
0.000128388
0.00511781
0.000141877
0.00513503
0.000151254
0.00515196
0.000159828
0.00516818
0.000168575
0.00518272
0.000176723
0.00519492
0.000183472
0.00520465
0.000188572
0.00521208
0.000192157
0.0052174
0.000194495
0.00522066
0.000195783
0.00522183
0.000196102
0.00522084
0.000195443
0.00521764
0.000193794
0.00521223
0.000191158
0.00520467
0.000187566
0.00519503
0.000183106
0.00518337
0.000177853
0.00516981
0.000171903
0.00515445
0.000165374
0.00513745
0.000158402
0.00511897
0.000151127
0.00509918
0.000143691
0.00507827
0.000136232
0.00505642
0.000128876
0.00503381
0.000121735
0.00501061
0.000114899
0.00498698
0.00010844
0.00496305
0.000102408
0.00493894
9.68329e-05
0.00491475
9.17283e-05
0.00489057
8.70939e-05
0.00486647
8.2919e-05
0.00484254
7.91767e-05
0.00481877
7.58124e-05
0.0047952
7.27917e-05
0.00477185
7.009e-05
0.00474872
6.76799e-05
0.00472582
6.5531e-05
0.00470316
6.36122e-05
0.00468072
6.18937e-05
0.00465851
6.03481e-05
0.00463652
5.89509e-05
0.00461474
5.76807e-05
0.00459317
5.6519e-05
0.00457179
5.54498e-05
0.0045506
5.44598e-05
0.00452959
5.35375e-05
0.00450876
5.26736e-05
0.0044881
5.18604e-05
0.0044676
5.10919e-05
0.00444726
5.03632e-05
0.00442707
4.96706e-05
0.00440703
4.90112e-05
0.00438713
4.8383e-05
0.00436736
4.77847e-05
0.00434773
4.72153e-05
0.00432822
4.66744e-05
0.00430883
4.61618e-05
0.00428956
4.56777e-05
0.00427039
4.52224e-05
0.00425132
4.47966e-05
0.00423234
4.44008e-05
0.00421346
4.4036e-05
0.00419465
4.37031e-05
0.00417591
4.34029e-05
0.00415723
4.31368e-05
0.0041386
4.29059e-05
0.00412001
4.27109e-05
0.00410145
4.25529e-05
0.00408291
4.24334e-05
0.00406437
4.23537e-05
0.00404583
4.23153e-05
0.00402727
4.23197e-05
0.00400867
4.23685e-05
0.00399001
4.24633e-05
0.00397129
4.26059e-05
0.00395249
4.27981e-05
0.00393358
4.30418e-05
0.00391454
4.33391e-05
0.00389537
4.36921e-05
0.00387602
4.41031e-05
0.00385649
4.45744e-05
0.00383675
4.51087e-05
0.00381677
4.57085e-05
0.00379653
4.63766e-05
0.00377599
4.7116e-05
0.00375513
4.79298e-05
0.00373391
4.88212e-05
0.00371231
4.97935e-05
0.00369029
5.08503e-05
0.00366781
5.19954e-05
0.00364483
5.32325e-05
0.00362131
5.45656e-05
0.0035972
5.59988e-05
0.00357247
5.75364e-05
0.00354706
5.91827e-05
0.00352093
6.09421e-05
0.00349401
6.2819e-05
0.00346625
6.4818e-05
0.00343759
6.69433e-05
0.00340798
6.91992e-05
0.00337733
7.15907e-05
0.00334559
7.4122e-05
0.00331268
7.67972e-05
0.00327852
7.96194e-05
0.00324304
8.25915e-05
0.00320614
8.57174e-05
0.00316775
8.89992e-05
0.00312776
9.24382e-05
0.00308608
9.60345e-05
0.00304261
9.97873e-05
0.00299726
0.000103694
0.0029499
0.000107752
0.00290044
0.000111953
0.00284875
0.000116292
0.00279473
0.000120756
0.00273826
0.000125332
0.00267922
0.000130005
0.00261751
0.000134751
0.002553
0.000139548
0.00248559
0.000144366
0.00241518
0.000149168
0.00234168
0.000153916
0.00226501
0.00015856
0.00218512
0.000163048
0.00210197
0.000167318
0.00201555
0.000171301
0.00192589
0.000174917
0.00183305
0.000178083
0.00173717
0.000180709
0.00163842
0.000182698
0.00153704
0.00018395
0.00143337
0.000184357
0.00132785
0.000183816
0.00122102
0.000182225
0.00111353
0.000179497
0.00100617
0.00017556
0.000899864
0.000170368
0.000795631
0.000163907
0.000694563
0.00015621
0.000597751
0.000147357
0.000506202
0.000137492
0.000420762
0.000126817
0.000342017
0.000115587
0.000270075
0.000104137
0.000204909
9.28377e-05
0.000146336
8.19991e-05
9.42733e-05
7.18071e-05
4.83839e-05
6.23502e-05
8.53942e-06
5.32156e-05
-2.5594e-05
4.45327e-05
-5.45017e-05
3.65932e-05
-7.89046e-05
2.98089e-05
-9.91977e-05
2.37354e-05
-0.000115651
1.79211e-05
1.22193e-05
-0.000128547
0.00500634
1.72885e-05
0.00502385
5.09992e-05
0.00504705
8.28145e-05
0.00506939
0.000106043
0.00508908
0.000122187
0.00510686
0.000133478
0.00512443
0.000142249
0.00514265
0.000150363
0.00516108
0.000158285
0.00517925
0.000165303
0.00519682
0.000171002
0.00521368
0.000175302
0.00522985
0.000178324
0.00524536
0.00018027
0.00526017
0.000181293
0.00527418
0.000181438
0.00528726
0.000180713
0.00529929
0.000179121
0.00531018
0.000176681
0.00531983
0.00017345
0.00532819
0.000169498
0.00533519
0.000164903
0.0053408
0.000159763
0.00534502
0.000154183
0.00534787
0.00014828
0.00534939
0.000142172
0.00534964
0.000135974
0.00534873
0.000129795
0.00534673
0.000123734
0.00534375
0.000117874
0.00533991
0.000112286
0.0053353
0.000107018
0.00533002
0.000102108
0.00532417
9.75751e-05
0.00531784
9.34265e-05
0.0053111
8.96549e-05
0.00530404
8.62434e-05
0.00529668
8.31708e-05
0.00528906
8.04096e-05
0.00528122
7.79342e-05
0.00527318
7.5721e-05
0.00526496
7.37459e-05
0.00525659
7.19838e-05
0.00524807
7.04097e-05
0.00523942
6.9e-05
0.00523064
6.77329e-05
0.00522173
6.6589e-05
0.0052127
6.55511e-05
0.00520354
6.46044e-05
0.00519427
6.37361e-05
0.00518487
6.29354e-05
0.00517535
6.21931e-05
0.00516571
6.15017e-05
0.00515595
6.08552e-05
0.00514606
6.02485e-05
0.00513605
5.96779e-05
0.00512592
5.91404e-05
0.00511567
5.86339e-05
0.0051053
5.81571e-05
0.00509481
5.77089e-05
0.00508419
5.7289e-05
0.00507346
5.68974e-05
0.0050626
5.65343e-05
0.00505162
5.62004e-05
0.00504052
5.58964e-05
0.0050293
5.56233e-05
0.00501795
5.53824e-05
0.00500648
5.51749e-05
0.00499488
5.50022e-05
0.00498315
5.4866e-05
0.00497129
5.47681e-05
0.00495929
5.47095e-05
0.00494715
5.46923e-05
0.00493487
5.47182e-05
0.00492243
5.47895e-05
0.00490984
5.49083e-05
0.00489708
5.50767e-05
0.00488415
5.52972e-05
0.00487105
5.55723e-05
0.00485775
5.59045e-05
0.00484425
5.62965e-05
0.00483054
5.67513e-05
0.00481661
5.72719e-05
0.00480244
5.78616e-05
0.00478802
5.85236e-05
0.00477333
5.92615e-05
0.00475836
6.00792e-05
0.00474309
6.09805e-05
0.00472749
6.19696e-05
0.00471156
6.30509e-05
0.00469526
6.42291e-05
0.00467857
6.5509e-05
0.00466147
6.68957e-05
0.00464392
6.83947e-05
0.00462591
7.00115e-05
0.00460739
7.1752e-05
0.00458833
7.36224e-05
0.0045687
7.56292e-05
0.00454846
7.7779e-05
0.00452756
8.00789e-05
0.00450597
8.25359e-05
0.00448363
8.51576e-05
0.0044605
8.79515e-05
0.00443652
9.09255e-05
0.00441163
9.40877e-05
0.00438577
9.74462e-05
0.00435888
0.00010101
0.0043309
0.000104786
0.00430173
0.000108783
0.00427131
0.00011301
0.00423956
0.000117473
0.00420637
0.000122182
0.00417167
0.000127143
0.00413534
0.000132362
0.00409729
0.000137844
0.00405739
0.000143594
0.00401552
0.000149615
0.00397157
0.000155909
0.00392538
0.000162473
0.00387683
0.000169306
0.00382577
0.000176401
0.00377202
0.000183749
0.00371544
0.000191338
0.00365584
0.000199148
0.00359304
0.000207158
0.00352687
0.00021534
0.00345713
0.000223656
0.00338363
0.000232065
0.00330616
0.000240514
0.00322454
0.000248942
0.00313856
0.000257278
0.00304804
0.000265436
0.00295281
0.000273315
0.00285271
0.000280808
0.0027476
0.000287805
0.00263739
0.000294165
0.002522
0.000299741
0.00240145
0.000304371
0.00227579
0.000307883
0.00214519
0.000310098
0.00200992
0.000310827
0.00187041
0.000309885
0.00172722
0.000307095
0.00158113
0.000302294
0.00143317
0.00029532
0.00128462
0.000286041
0.00113707
0.000274374
0.000992334
0.000260318
0.000852492
0.00024398
0.000719707
0.000225623
0.000596034
0.000205672
0.000483134
0.000184706
0.0003821
0.000163384
0.000292861
0.000142455
0.000214702
0.000122692
0.000146605
0.00010469
8.76948e-05
8.87194e-05
3.71931e-05
7.4237e-05
-5.52778e-06
6.06419e-05
4.79955e-05
-4.1304e-05
0.00500365
1.36379e-05
0.00501435
4.03031e-05
0.00503119
6.5976e-05
0.00504934
8.78853e-05
0.00506702
0.00010451
0.00508362
0.000116874
0.00509961
0.000126267
0.00511581
0.000134164
0.00513256
0.000141531
0.00514965
0.000148213
0.00516675
0.000153905
0.00518365
0.000158394
0.0052003
0.000161681
0.00521666
0.000163902
0.00523276
0.000165199
0.00524854
0.000165658
0.00526393
0.000165324
0.00527883
0.000164221
0.00529314
0.000162372
0.00530676
0.000159822
0.00531963
0.000156631
0.00533167
0.000152868
0.00534281
0.000148617
0.00535303
0.000143967
0.00536229
0.000139014
0.00537061
0.000133856
0.00537799
0.00012859
0.00538448
0.00012331
0.00539012
0.000118097
0.00539496
0.000113028
0.00539909
0.000108161
0.00540256
0.000103547
0.00540545
9.92182e-05
0.00540783
9.51974e-05
0.00540976
9.14942e-05
0.00541131
8.81076e-05
0.00541252
8.50303e-05
0.00541344
8.22508e-05
0.0054141
7.97505e-05
0.00541452
7.75082e-05
0.00541474
7.55029e-05
0.00541477
7.37143e-05
0.00541464
7.21222e-05
0.00541434
7.07059e-05
0.00541389
6.94457e-05
0.0054133
6.83228e-05
0.00541257
6.73198e-05
0.0054117
6.64214e-05
0.00541069
6.56139e-05
0.00540954
6.48857e-05
0.00540825
6.42264e-05
0.00540682
6.36275e-05
0.00540524
6.30816e-05
0.00540351
6.25828e-05
0.00540163
6.21261e-05
0.0053996
6.17076e-05
0.00539742
6.13244e-05
0.00539508
6.09741e-05
0.00539258
6.06552e-05
0.00538992
6.03667e-05
0.0053871
6.0108e-05
0.00538412
5.98791e-05
0.00538098
5.96801e-05
0.00537766
5.95118e-05
0.00537419
5.93749e-05
0.00537054
5.92704e-05
0.00536672
5.91998e-05
0.00536273
5.91643e-05
0.00535857
5.91657e-05
0.00535423
5.92057e-05
0.00534971
5.92861e-05
0.00534501
5.94088e-05
0.00534013
5.9576e-05
0.00533506
5.97898e-05
0.00532979
6.00528e-05
0.00532433
6.03675e-05
0.00531867
6.07367e-05
0.00531281
6.11632e-05
0.00530673
6.165e-05
0.00530043
6.22004e-05
0.00529391
6.28176e-05
0.00528716
6.35053e-05
0.00528016
6.42672e-05
0.00527292
6.51073e-05
0.00526541
6.60297e-05
0.00525764
6.70389e-05
0.00524957
6.81395e-05
0.00524122
6.93366e-05
0.00523255
7.06352e-05
0.00522356
7.2041e-05
0.00521423
7.35598e-05
0.00520454
7.51976e-05
0.00519448
7.6961e-05
0.00518402
7.88568e-05
0.00517314
8.08922e-05
0.00516181
8.30746e-05
0.00515002
8.54122e-05
0.00513774
8.79132e-05
0.00512493
9.05863e-05
0.00511157
9.34406e-05
0.00509762
9.64859e-05
0.00508305
9.97318e-05
0.00506781
0.000103189
0.00505187
0.000106868
0.00503517
0.00011078
0.00501768
0.000114937
0.00499934
0.000119351
0.00498009
0.000124033
0.00495988
0.000128996
0.00493864
0.000134253
0.00491629
0.000139817
0.00489278
0.000145701
0.004868
0.000151916
0.00484189
0.000158476
0.00481434
0.000165393
0.00478526
0.000172677
0.00475453
0.00018034
0.00472205
0.000188391
0.00468768
0.000196838
0.0046513
0.000205687
0.00461276
0.000214943
0.0045719
0.000224606
0.00452857
0.000234676
0.00448257
0.000245146
0.00443372
0.000256006
0.00438182
0.000267241
0.00432665
0.000278829
0.00426797
0.000290741
0.00420554
0.000302939
0.00413911
0.000315377
0.00406839
0.000327996
0.0039931
0.000340726
0.00391294
0.000353481
0.00382758
0.000366167
0.00373671
0.000378673
0.00364
0.000390869
0.00353714
0.000402606
0.00342779
0.000413717
0.00331166
0.000424014
0.00318847
0.00043329
0.00305798
0.000441316
0.00292004
0.000447826
0.00277458
0.000452557
0.00262161
0.000455264
0.0024613
0.000455627
0.00229401
0.000453334
0.0021203
0.000448081
0.00194103
0.00043959
0.00175738
0.000427635
0.00157095
0.000412052
0.00138389
0.000392729
0.00119895
0.000369647
0.00101939
0.00034294
0.000848863
0.000312985
0.000691031
0.000280524
0.000549016
0.000246705
0.00042484
0.000212895
0.000318586
0.000180492
0.000228456
0.000150771
0.00012452
0.000151931
0.00500249
1.11484e-05
0.00500982
3.29722e-05
0.00502171
5.40912e-05
0.00503621
7.33813e-05
0.00505142
8.93031e-05
0.00506648
0.000101814
0.00508114
0.000111609
0.00509573
0.000119566
0.00511075
0.000126516
0.00512619
0.000132768
0.00514189
0.000138211
0.00515762
0.000142662
0.00517324
0.000146059
0.00518869
0.00014845
0.00520396
0.000149931
0.00521902
0.000150599
0.00523382
0.000150522
0.0052483
0.000149743
0.00526237
0.000148298
0.00527597
0.000146227
0.00528902
0.000143582
0.00530146
0.000140425
0.00531325
0.000136828
0.00532435
0.000132869
0.00533473
0.000128629
0.0053444
0.000124192
0.00535334
0.000119641
0.0053616
0.000115053
0.0053692
0.000110503
0.00537617
0.000106053
0.00538257
0.000101758
0.00538846
9.76614e-05
0.00539388
9.37962e-05
0.00539889
9.01841e-05
0.00540355
8.68373e-05
0.0054079
8.37599e-05
0.00541198
8.09501e-05
0.00541583
7.84008e-05
0.00541948
7.60998e-05
0.00542296
7.40311e-05
0.00542628
7.21772e-05
0.00542948
7.05211e-05
0.00543255
6.90458e-05
0.00543552
6.77347e-05
0.0054384
6.65711e-05
0.00544118
6.5539e-05
0.00544388
6.46235e-05
0.00544649
6.38108e-05
0.00544901
6.30889e-05
0.00545145
6.24468e-05
0.0054538
6.18753e-05
0.00545606
6.13663e-05
0.00545823
6.09129e-05
0.00546031
6.05093e-05
0.00546228
6.01508e-05
0.00546416
5.98335e-05
0.00546593
5.95545e-05
0.00546759
5.93114e-05
0.00546914
5.91025e-05
0.00547058
5.89267e-05
0.00547191
5.87835e-05
0.00547311
5.86727e-05
0.0054742
5.85944e-05
0.00547516
5.85491e-05
0.005476
5.85378e-05
0.00547671
5.85613e-05
0.00547729
5.8621e-05
0.00547773
5.87184e-05
0.00547804
5.88551e-05
0.00547821
5.9033e-05
0.00547825
5.9254e-05
0.00547814
5.95203e-05
0.00547788
5.9834e-05
0.00547747
6.01977e-05
0.00547691
6.0614e-05
0.00547619
6.10858e-05
0.00547531
6.1616e-05
0.00547427
6.22077e-05
0.00547305
6.28644e-05
0.00547166
6.35896e-05
0.00547009
6.4387e-05
0.00546834
6.52606e-05
0.00546639
6.62145e-05
0.00546424
6.72534e-05
0.00546189
6.83817e-05
0.00545933
6.96046e-05
0.00545654
7.09273e-05
0.00545352
7.23554e-05
0.00545026
7.38948e-05
0.00544675
7.55517e-05
0.00544298
7.73328e-05
0.00543893
7.92451e-05
0.00543459
8.12959e-05
0.00542996
8.3493e-05
0.00542501
8.58448e-05
0.00541972
8.83598e-05
0.00541409
9.10473e-05
0.00540808
9.3917e-05
0.00540169
9.69789e-05
0.00539489
0.000100244
0.00538765
0.000103723
0.00537995
0.000107428
0.00537177
0.000111371
0.00536307
0.000115566
0.00535383
0.000120025
0.005344
0.000124763
0.00533356
0.000129794
0.00532246
0.000135134
0.00531066
0.000140798
0.00529811
0.000146802
0.00528476
0.000153163
0.00527057
0.000159898
0.00525546
0.000167024
0.00523938
0.000174559
0.00522225
0.000182519
0.005204
0.000190924
0.00518455
0.000199789
0.00516381
0.000209131
0.00514168
0.000218967
0.00511806
0.000229312
0.00509282
0.000240178
0.00506585
0.000251579
0.00503701
0.000263523
0.00500613
0.000276018
0.00497307
0.000289067
0.00493764
0.00030267
0.00489965
0.00031682
0.00485889
0.000331507
0.00481511
0.000346713
0.00476808
0.000362409
0.00471751
0.000378561
0.00466312
0.000395122
0.00460457
0.000412034
0.00454151
0.000429225
0.00447357
0.000446609
0.00440036
0.000464084
0.00432144
0.000481527
0.00423636
0.000498794
0.00414465
0.00051572
0.00404583
0.000532113
0.00393939
0.000547754
0.00382483
0.000562392
0.00370162
0.000575759
0.00356933
0.000587559
0.0034275
0.000597454
0.00327576
0.000605073
0.00311382
0.000610019
0.00294156
0.00061185
0.00275907
0.000610133
0.00256662
0.000604496
0.00236489
0.00059446
0.00215494
0.000579603
0.00193829
0.000559584
0.00171708
0.000534198
0.00149424
0.000503366
0.00127376
0.000467181
0.00106068
0.000425978
0.000860668
0.0003805
0.000679304
0.000332135
0.000283038
0.000520786
0.00500185
9.29991e-06
0.00500728
2.75391e-05
0.00501604
4.53328e-05
0.00502755
6.18693e-05
0.00504038
7.64712e-05
0.00505372
8.84767e-05
0.00506711
9.82161e-05
0.00508051
0.000106167
0.00509416
0.000112874
0.00510819
0.000118736
0.00512255
0.000123848
0.00513708
0.000128132
0.00515162
0.000131515
0.00516608
0.000133992
0.0051804
0.000135611
0.00519455
0.000136452
0.00520849
0.000136586
0.00522216
0.000136072
0.0052355
0.000134955
0.00524845
0.000133275
0.00526095
0.000131081
0.00527295
0.000128426
0.00528441
0.000125372
0.00529529
0.000121988
0.00530558
0.000118342
0.00531526
0.000114508
0.00532435
0.000110556
0.00533285
0.000106553
0.00534079
0.000102563
0.0053482
9.86405e-05
0.00535512
9.48345e-05
0.0053616
9.11842e-05
0.00536767
8.77201e-05
0.00537339
8.4464e-05
0.0053788
8.14298e-05
0.00538394
7.86247e-05
0.00538884
7.60499e-05
0.00539354
7.37019e-05
0.00539806
7.15727e-05
0.00540244
6.96505e-05
0.0054067
6.7922e-05
0.00541085
6.6373e-05
0.0054149
6.49898e-05
0.00541888
6.37583e-05
0.00542279
6.26648e-05
0.00542663
6.16959e-05
0.00543041
6.08387e-05
0.00543414
6.00812e-05
0.00543782
5.94127e-05
0.00544144
5.88233e-05
0.00544501
5.83048e-05
0.00544853
5.78496e-05
0.00545199
5.74513e-05
0.0054554
5.71047e-05
0.00545874
5.68052e-05
0.00546203
5.65492e-05
0.00546525
5.63336e-05
0.0054684
5.61564e-05
0.00547149
5.60158e-05
0.00547451
5.59107e-05
0.00547745
5.58404e-05
0.00548032
5.58049e-05
0.00548311
5.58041e-05
0.00548582
5.58386e-05
0.00548845
5.59093e-05
0.00549099
5.6017e-05
0.00549345
5.61631e-05
0.00549582
5.6349e-05
0.0054981
5.65766e-05
0.00550028
5.68475e-05
0.00550237
5.71639e-05
0.00550436
5.75279e-05
0.00550626
5.79421e-05
0.00550804
5.84089e-05
0.00550973
5.8931e-05
0.0055113
5.95116e-05
0.00551276
6.01536e-05
0.00551411
6.08605e-05
0.00551534
6.16357e-05
0.00551645
6.24831e-05
0.00551743
6.34066e-05
0.00551828
6.44105e-05
0.00551899
6.54992e-05
0.00551957
6.66774e-05
0.00552
6.79503e-05
0.00552028
6.9323e-05
0.00552041
7.08013e-05
0.00552037
7.23911e-05
0.00552017
7.40988e-05
0.00551979
7.59311e-05
0.00551923
7.78949e-05
0.00551847
7.9998e-05
0.00551752
8.22482e-05
0.00551636
8.46539e-05
0.00551498
8.72241e-05
0.00551337
8.9968e-05
0.00551152
9.28957e-05
0.00550942
9.60175e-05
0.00550706
9.93446e-05
0.00550441
0.000102889
0.00550147
0.000106662
0.00549823
0.000110677
0.00549465
0.000114948
0.00549073
0.000119488
0.00548644
0.000124314
0.00548176
0.000129439
0.00547667
0.000134882
0.00547115
0.000140658
0.00546516
0.000146786
0.00545868
0.000153284
0.00545167
0.000160171
0.0054441
0.000167467
0.00543593
0.000175192
0.00542713
0.000183368
0.00541763
0.000192016
0.0054074
0.000201157
0.00539637
0.000210813
0.0053845
0.000221007
0.0053717
0.000231761
0.00535792
0.000243095
0.00534307
0.000255033
0.00532705
0.000267592
0.00530978
0.000280794
0.00529115
0.000294655
0.00527102
0.00030919
0.00524928
0.000324412
0.00522577
0.00034033
0.00520033
0.000356948
0.00517277
0.000374268
0.0051429
0.000392282
0.00511049
0.000410977
0.00507528
0.000430332
0.00503699
0.000450317
0.00499533
0.000470889
0.00494994
0.000491995
0.00490046
0.000513565
0.00484647
0.000535515
0.00478753
0.00055774
0.00472313
0.000580115
0.00465276
0.000602489
0.00457582
0.000624688
0.00449171
0.000646506
0.00439976
0.000667709
0.00429929
0.000688027
0.00418959
0.000707153
0.00406993
0.000724731
0.00393959
0.000740362
0.00379784
0.0007536
0.00364401
0.000763967
0.00347755
0.000770956
0.00329801
0.000774
0.00310512
0.000772495
0.00289892
0.000765779
0.00267981
0.00075331
0.00244866
0.000734517
0.00220704
0.000708801
0.00195726
0.000675758
0.00170251
0.000635246
0.00144728
0.000587365
0.000532547
0.00119777
0.00500144
7.86103e-06
0.00500568
2.33027e-05
0.00501255
3.84552e-05
0.00502174
5.26816e-05
0.00503256
6.56471e-05
0.00504425
7.67955e-05
0.00505635
8.61124e-05
0.00506867
9.38463e-05
0.00508122
0.000100326
0.00509409
0.000105865
0.00510729
0.000110647
0.00512073
0.000114694
0.00513428
0.000117968
0.00514782
0.000120446
0.00516129
0.000122146
0.00517462
0.00012312
0.00518777
0.000123432
0.0052007
0.000123143
0.00521335
0.000122302
0.00522567
0.000120954
0.00523761
0.000119145
0.00524912
0.000116921
0.00526015
0.000114336
0.00527069
0.000111449
0.00528071
0.00010832
0.00529021
0.000105011
0.00529918
0.000101584
0.00530764
9.8096e-05
0.0053156
9.46022e-05
0.00532309
9.11513e-05
0.00533014
8.77857e-05
0.00533678
8.45409e-05
0.00534306
8.14454e-05
0.005349
7.85203e-05
0.00535465
7.57803e-05
0.00536004
7.32341e-05
0.0053652
7.08851e-05
0.00537017
6.87324e-05
0.00537498
6.6771e-05
0.00537963
6.49927e-05
0.00538417
6.33875e-05
0.0053886
6.19444e-05
0.00539293
6.06521e-05
0.00539719
5.94989e-05
0.00540139
5.84734e-05
0.00540552
5.75644e-05
0.00540959
5.6761e-05
0.00541362
5.60527e-05
0.00541761
5.54302e-05
0.00542154
5.48849e-05
0.00542544
5.44091e-05
0.00542929
5.39962e-05
0.0054331
5.36403e-05
0.00543687
5.33366e-05
0.0054406
5.30808e-05
0.00544428
5.28696e-05
0.00544791
5.27003e-05
0.0054515
5.25706e-05
0.00545503
5.2479e-05
0.00545852
5.24246e-05
0.00546195
5.24066e-05
0.00546533
5.24248e-05
0.00546866
5.24794e-05
0.00547192
5.25709e-05
0.00547513
5.27001e-05
0.00547828
5.28679e-05
0.00548137
5.30758e-05
0.00548439
5.33251e-05
0.00548735
5.36175e-05
0.00549025
5.39551e-05
0.00549307
5.43398e-05
0.00549582
5.4774e-05
0.00549851
5.52601e-05
0.00550111
5.58008e-05
0.00550365
5.63989e-05
0.0055061
5.70575e-05
0.00550847
5.77797e-05
0.00551076
5.85692e-05
0.00551297
5.94294e-05
0.00551509
6.03644e-05
0.00551712
6.13783e-05
0.00551905
6.24754e-05
0.00552089
6.36604e-05
0.00552263
6.49382e-05
0.00552427
6.63141e-05
0.0055258
6.77935e-05
0.00552722
6.93823e-05
0.00552852
7.10868e-05
0.00552971
7.29135e-05
0.00553077
7.48694e-05
0.0055317
7.69619e-05
0.0055325
7.91987e-05
0.00553316
8.15882e-05
0.00553367
8.41392e-05
0.00553404
8.68608e-05
0.00553424
8.97628e-05
0.00553428
9.28556e-05
0.00553415
9.61501e-05
0.00553384
9.96579e-05
0.00553333
0.000103391
0.00553263
0.000107362
0.00553173
0.000111586
0.0055306
0.000116075
0.00552924
0.000120845
0.00552764
0.000125911
0.00552579
0.000131291
0.00552367
0.000137002
0.00552127
0.000143061
0.00551857
0.000149487
0.00551555
0.000156301
0.0055122
0.000163523
0.00550849
0.000171174
0.00550441
0.000179277
0.00549992
0.000187854
0.00549501
0.00019693
0.00548963
0.000206528
0.00548377
0.000216674
0.00547739
0.000227394
0.00547043
0.000238712
0.00546288
0.000250655
0.00545466
0.00026325
0.00544573
0.000276521
0.00543603
0.000290495
0.00542549
0.000305197
0.00541403
0.00032065
0.00540156
0.000336876
0.00538799
0.000353896
0.00537321
0.000371727
0.0053571
0.000390384
0.0053395
0.000409877
0.00532027
0.000430211
0.00529921
0.000451387
0.00527613
0.000473398
0.00525079
0.000496229
0.00522293
0.000519856
0.00519225
0.000544243
0.00515843
0.000569342
0.00512108
0.000595091
0.00507978
0.000621409
0.00503408
0.000648195
0.00498344
0.000675328
0.00492728
0.000702659
0.00486498
0.000730012
0.00479583
0.000757175
0.00471908
0.0007839
0.00463392
0.000809895