/*--------------------------------*- C++ -*----------------------------------*\
| =========                 |                                                 |
| \\      /  F ield         | OpenFOAM: The Open Source CFD Toolbox           |
|  \\    /   O peration     | Version:  2306                                  |
|   \\  /    A nd           | Website:  www.openfoam.com                      |
|    \\/     M anipulation  |                                                 |
\*---------------------------------------------------------------------------*/
FoamFile
{
    version     2.0;
    format      ascii;
    arch        "LSB;label=32;scalar=64";
    class       volVectorField;
    location    "0.425";
    object      U;
}
// * * * * * * * * * * * * * * * * * * * * * * * * * * * * * * * * * * * * * //

dimensions      [0 1 -1 0 0 0 0];

internalField   nonuniform List<vector> 
17600
(
(9.80708 0.0850068 0)
(9.62282 0.1805 0)
(9.41196 0.217949 0)
(9.14628 0.225578 0)
(8.83439 0.2251 0)
(8.49836 0.225385 0)
(8.15616 0.226736 0)
(7.81672 0.227129 0)
(7.48269 0.225219 0)
(7.15415 0.220818 0)
(6.83067 0.214448 0)
(6.51243 0.206753 0)
(6.20026 0.19816 0)
(5.89551 0.188852 0)
(5.59966 0.178847 0)
(5.31425 0.168129 0)
(5.0406 0.156697 0)
(4.78013 0.144613 0)
(4.53373 0.131894 0)
(4.30221 0.118628 0)
(4.08621 0.104997 0)
(3.88622 0.0912586 0)
(3.70253 0.0777043 0)
(3.53515 0.0646282 0)
(3.38385 0.0522998 0)
(3.24814 0.040945 0)
(3.12728 0.0307334 0)
(3.02037 0.0217708 0)
(2.92637 0.0141 0)
(2.84411 0.00770626 0)
(2.77241 0.0025292 0)
(2.71006 -0.00152537 0)
(2.65587 -0.00457135 0)
(2.60873 -0.00673331 0)
(2.56757 -0.00813378 0)
(2.53146 -0.00889464 0)
(2.49951 -0.00912545 0)
(2.47099 -0.00895708 0)
(2.4453 -0.0085107 0)
(2.42188 -0.00788021 0)
(2.40028 -0.00713471 0)
(2.38012 -0.00632541 0)
(2.36107 -0.00549071 0)
(2.34288 -0.00465916 0)
(2.32535 -0.0038514 0)
(2.30831 -0.00308185 0)
(2.29164 -0.00236012 0)
(2.27526 -0.00169221 0)
(2.2591 -0.00108126 0)
(2.24311 -0.000528228 0)
(2.22726 -3.23175e-05 0)
(2.21153 0.000408633 0)
(2.1959 0.000797777 0)
(2.18038 0.00113893 0)
(2.16495 0.0014363 0)
(2.14962 0.00169425 0)
(2.1344 0.00191714 0)
(2.11928 0.00210918 0)
(2.10426 0.0022744 0)
(2.08935 0.00241652 0)
(2.07455 0.002539 0)
(2.05985 0.00264498 0)
(2.04526 0.0027373 0)
(2.03078 0.0028185 0)
(2.01639 0.00289083 0)
(2.00209 0.0029563 0)
(1.98787 0.00301665 0)
(1.97373 0.00307343 0)
(1.95965 0.00312797 0)
(1.94562 0.0031814 0)
(1.93164 0.0032347 0)
(1.91768 0.00328865 0)
(1.90373 0.00334396 0)
(1.88978 0.00340131 0)
(1.87582 0.00346135 0)
(1.86182 0.00352469 0)
(1.84776 0.00359189 0)
(1.83364 0.00366343 0)
(1.81943 0.00373971 0)
(1.80511 0.00382113 0)
(1.79065 0.00390802 0)
(1.77605 0.0040007 0)
(1.76128 0.00409944 0)
(1.74631 0.00420451 0)
(1.73112 0.00431615 0)
(1.71569 0.00443455 0)
(1.69998 0.00455992 0)
(1.68399 0.00469241 0)
(1.66767 0.00483217 0)
(1.65101 0.00497929 0)
(1.63397 0.00513386 0)
(1.61652 0.00529591 0)
(1.59864 0.00546544 0)
(1.58029 0.00564236 0)
(1.56145 0.00582656 0)
(1.54207 0.00601783 0)
(1.52213 0.00621587 0)
(1.50159 0.0064203 0)
(1.48042 0.0066306 0)
(1.45858 0.0068461 0)
(1.43604 0.007066 0)
(1.41277 0.00728926 0)
(1.38872 0.00751461 0)
(1.36386 0.00774056 0)
(1.33817 0.00796537 0)
(1.3116 0.00818762 0)
(1.28412 0.00840592 0)
(1.25571 0.00861849 0)
(1.22633 0.00882312 0)
(1.19595 0.00901745 0)
(1.16457 0.00919887 0)
(1.13215 0.00936441 0)
(1.09869 0.00951055 0)
(1.06417 0.00963317 0)
(1.0286 0.00972782 0)
(0.991978 0.00978975 0)
(0.954326 0.00981404 0)
(0.915668 0.00979568 0)
(0.87604 0.00972975 0)
(0.83549 0.00961157 0)
(0.794082 0.00943698 0)
(0.751891 0.00920265 0)
(0.709008 0.00890644 0)
(0.665541 0.00854783 0)
(0.621612 0.00812838 0)
(0.577358 0.00765228 0)
(0.532932 0.00712681 0)
(0.488501 0.00656273 0)
(0.444242 0.00597452 0)
(0.400341 0.00538016 0)
(0.356991 0.00480042 0)
(0.314386 0.00425724 0)
(0.272723 0.00377103 0)
(0.232194 0.00335719 0)
(0.192988 0.00302213 0)
(0.155291 0.00275948 0)
(0.119287 0.00254737 0)
(0.0851608 0.00234844 0)
(0.0530956 0.00211408 0)
(0.0232595 0.00179614 0)
(-0.00418031 0.00136833 0)
(-0.0291111 0.000813476 0)
(-0.0515173 0.000162053 0)
(-0.0714624 -0.000513401 0)
(-0.0890792 -0.00112427 0)
(-0.104533 -0.00159492 0)
(-0.117964 -0.00189732 0)
(-0.129443 -0.00208367 0)
(-0.138928 -0.002274 0)
(-0.146392 -0.00248481 0)
(-0.15192 -0.00264706 0)
(-0.155797 -0.00266197 0)
(-0.158374 -0.00256372 0)
(-0.159867 -0.00246819 0)
(-0.160316 -0.00244308 0)
(-0.159752 -0.00244752 0)
(-0.158356 -0.00239444 0)
(-0.156341 -0.0022996 0)
(-0.153714 -0.00228023 0)
(-0.15025 -0.00242911 0)
(10.0008 0.122279 0)
(10.0676 0.272137 0)
(10.1383 0.342321 0)
(10.1915 0.367553 0)
(10.2161 0.377243 0)
(10.2123 0.385769 0)
(10.1866 0.395783 0)
(10.1458 0.40522 0)
(10.094 0.411969 0)
(10.033 0.415277 0)
(9.96332 0.41546 0)
(9.88493 0.413208 0)
(9.79809 0.40907 0)
(9.70347 0.403325 0)
(9.60187 0.396017 0)
(9.49434 0.387101 0)
(9.38179 0.37651 0)
(9.26524 0.364235 0)
(9.14544 0.350293 0)
(9.02323 0.334782 0)
(8.89947 0.317887 0)
(8.77496 0.299858 0)
(8.65048 0.28099 0)
(8.52675 0.261604 0)
(8.40442 0.242027 0)
(8.28406 0.222582 0)
(8.16617 0.203568 0)
(8.05119 0.185253 0)
(7.93944 0.16786 0)
(7.83122 0.151565 0)
(7.72668 0.136488 0)
(7.62598 0.122703 0)
(7.52911 0.110231 0)
(7.43612 0.0990627 0)
(7.34689 0.0891462 0)
(7.26135 0.0804163 0)
(7.17931 0.0727826 0)
(7.10061 0.066166 0)
(7.02509 0.0604869 0)
(6.9526 0.0556564 0)
(6.88296 0.0515771 0)
(6.81598 0.0481489 0)
(6.75149 0.0452746 0)
(6.68932 0.0428651 0)
(6.6293 0.0408414 0)
(6.57129 0.0391357 0)
(6.51513 0.0376905 0)
(6.46071 0.0364576 0)
(6.40789 0.0353969 0)
(6.35657 0.0344752 0)
(6.30665 0.0336654 0)
(6.25804 0.0329457 0)
(6.21065 0.0322984 0)
(6.16441 0.0317098 0)
(6.11924 0.0311692 0)
(6.07509 0.0306685 0)
(6.03188 0.0302016 0)
(5.98958 0.029764 0)
(5.94811 0.0293529 0)
(5.90743 0.028966 0)
(5.8675 0.0286021 0)
(5.82828 0.0282608 0)
(5.7897 0.0279419 0)
(5.75175 0.0276456 0)
(5.71437 0.0273724 0)
(5.67753 0.0271232 0)
(5.64118 0.0268986 0)
(5.6053 0.0266997 0)
(5.56983 0.0265274 0)
(5.53475 0.0263828 0)
(5.50002 0.0262669 0)
(5.46559 0.0261807 0)
(5.43143 0.0261251 0)
(5.39751 0.026101 0)
(5.36378 0.0261096 0)
(5.3302 0.0261518 0)
(5.29674 0.0262286 0)
(5.26335 0.0263413 0)
(5.23 0.0264909 0)
(5.19664 0.0266785 0)
(5.16323 0.0269055 0)
(5.12972 0.027173 0)
(5.09607 0.0274824 0)
(5.06224 0.0278351 0)
(5.02817 0.0282324 0)
(4.99381 0.028676 0)
(4.95912 0.0291673 0)
(4.92404 0.029708 0)
(4.88851 0.0302998 0)
(4.85248 0.0309443 0)
(4.8159 0.0316434 0)
(4.77869 0.0323988 0)
(4.74079 0.0332126 0)
(4.70214 0.0340864 0)
(4.66267 0.0350224 0)
(4.62231 0.0360223 0)
(4.58098 0.037088 0)
(4.53861 0.0382213 0)
(4.49511 0.039424 0)
(4.4504 0.0406978 0)
(4.40439 0.042044 0)
(4.35699 0.0434641 0)
(4.30811 0.0449589 0)
(4.25765 0.0465292 0)
(4.20551 0.0481751 0)
(4.15159 0.049896 0)
(4.09577 0.0516901 0)
(4.03796 0.0535551 0)
(3.97803 0.0554874 0)
(3.91588 0.0574831 0)
(3.85138 0.0595367 0)
(3.78442 0.061642 0)
(3.71487 0.0637915 0)
(3.64262 0.0659758 0)
(3.56756 0.0681837 0)
(3.48956 0.0704021 0)
(3.40851 0.0726158 0)
(3.32432 0.0748071 0)
(3.23688 0.0769554 0)
(3.14611 0.0790379 0)
(3.05194 0.0810283 0)
(2.95431 0.0828979 0)
(2.85319 0.0846149 0)
(2.74858 0.0861448 0)
(2.6405 0.0874509 0)
(2.529 0.0884943 0)
(2.4142 0.0892351 0)
(2.29625 0.0896326 0)
(2.17536 0.0896472 0)
(2.05183 0.089241 0)
(1.92599 0.0883798 0)
(1.79829 0.0870351 0)
(1.66925 0.0851865 0)
(1.53947 0.0828248 0)
(1.40965 0.0799535 0)
(1.28055 0.0765897 0)
(1.153 0.0727649 0)
(1.02785 0.0685303 0)
(0.905964 0.0639603 0)
(0.788156 0.0591571 0)
(0.675185 0.0542605 0)
(0.567706 0.0494128 0)
(0.466263 0.0447574 0)
(0.371287 0.0403985 0)
(0.283111 0.0363469 0)
(0.201984 0.0324926 0)
(0.128018 0.0286433 0)
(0.0612093 0.0246602 0)
(0.00174547 0.0205767 0)
(-0.0504979 0.0164975 0)
(-0.095855 0.0127206 0)
(-0.13502 0.00949093 0)
(-0.168583 0.00688169 0)
(-0.196829 0.00457978 0)
(-0.219982 0.00235793 0)
(-0.238415 0.000338758 0)
(-0.252762 -0.00122474 0)
(-0.263582 -0.00252448 0)
(-0.271109 -0.00400639 0)
(-0.275318 -0.005896 0)
(10.0003 0.0614123 0)
(10.0359 0.160323 0)
(10.0898 0.227823 0)
(10.1516 0.268451 0)
(10.2101 0.293286 0)
(10.2592 0.312151 0)
(10.298 0.330013 0)
(10.3292 0.347479 0)
(10.3556 0.363366 0)
(10.3789 0.376571 0)
(10.3993 0.3867 0)
(10.4165 0.393929 0)
(10.4298 0.398643 0)
(10.4388 0.40115 0)
(10.4434 0.401593 0)
(10.4434 0.399982 0)
(10.4391 0.396275 0)
(10.4303 0.39045 0)
(10.4173 0.38257 0)
(10.4001 0.372763 0)
(10.3788 0.361214 0)
(10.3536 0.348158 0)
(10.3247 0.333862 0)
(10.2925 0.318625 0)
(10.2571 0.302759 0)
(10.2189 0.286577 0)
(10.1783 0.270381 0)
(10.1356 0.254449 0)
(10.0911 0.239019 0)
(10.0453 0.22429 0)
(9.99842 0.210405 0)
(9.95078 0.197469 0)
(9.90264 0.185531 0)
(9.85426 0.174609 0)
(9.80579 0.164681 0)
(9.75744 0.15571 0)
(9.70928 0.147635 0)
(9.66145 0.140403 0)
(9.61403 0.133958 0)
(9.56705 0.128237 0)
(9.52054 0.123163 0)
(9.47449 0.118659 0)
(9.4289 0.114647 0)
(9.38378 0.111054 0)
(9.33912 0.107818 0)
(9.29491 0.104882 0)
(9.25113 0.102201 0)
(9.20777 0.0997349 0)
(9.16482 0.0974524 0)
(9.12225 0.0953262 0)
(9.08006 0.0933345 0)
(9.03822 0.0914593 0)
(8.99674 0.089686 0)
(8.95558 0.0880034 0)
(8.91475 0.0864024 0)
(8.87423 0.0848762 0)
(8.834 0.0834197 0)
(8.79406 0.0820291 0)
(8.7544 0.0807018 0)
(8.71501 0.0794361 0)
(8.67587 0.078231 0)
(8.63697 0.0770861 0)
(8.59831 0.0760014 0)
(8.55987 0.0749773 0)
(8.52164 0.0740145 0)
(8.4836 0.0731138 0)
(8.44575 0.0722762 0)
(8.40805 0.0715031 0)
(8.37051 0.0707956 0)
(8.33309 0.0701552 0)
(8.29579 0.0695834 0)
(8.25858 0.069082 0)
(8.22143 0.0686528 0)
(8.18434 0.0682975 0)
(8.14727 0.0680181 0)
(8.11019 0.0678166 0)
(8.07309 0.0676949 0)
(8.03593 0.0676552 0)
(7.99869 0.0676997 0)
(7.96132 0.0678309 0)
(7.9238 0.0680511 0)
(7.8861 0.0683632 0)
(7.84816 0.06877 0)
(7.80996 0.0692746 0)
(7.77145 0.0698802 0)
(7.73259 0.0705902 0)
(7.69333 0.0714084 0)
(7.65362 0.0723387 0)
(7.6134 0.0733851 0)
(7.57264 0.074552 0)
(7.53125 0.0758442 0)
(7.48919 0.0772663 0)
(7.44639 0.0788235 0)
(7.40279 0.0805211 0)
(7.3583 0.0823648 0)
(7.31285 0.0843602 0)
(7.26637 0.0865134 0)
(7.21877 0.0888306 0)
(7.16996 0.0913181 0)
(7.11984 0.0939826 0)
(7.06832 0.0968305 0)
(7.01529 0.0998687 0)
(6.96065 0.103104 0)
(6.90426 0.106542 0)
(6.84603 0.110191 0)
(6.7858 0.114055 0)
(6.72345 0.118139 0)
(6.65884 0.122449 0)
(6.59181 0.126986 0)
(6.52221 0.131755 0)
(6.44988 0.136755 0)
(6.37463 0.141986 0)
(6.2963 0.147445 0)
(6.21469 0.153129 0)
(6.1296 0.15903 0)
(6.04084 0.165138 0)
(5.94819 0.171441 0)
(5.85143 0.177921 0)
(5.75035 0.184556 0)
(5.64472 0.191321 0)
(5.5343 0.198182 0)
(5.41887 0.205101 0)
(5.29818 0.21203 0)
(5.17203 0.218916 0)
(5.04018 0.225694 0)
(4.90243 0.23229 0)
(4.75858 0.238621 0)
(4.60847 0.24459 0)
(4.45195 0.250088 0)
(4.28894 0.254994 0)
(4.11937 0.259174 0)
(3.94327 0.262479 0)
(3.76073 0.264752 0)
(3.57194 0.265824 0)
(3.37719 0.265532 0)
(3.17691 0.263713 0)
(2.97167 0.260222 0)
(2.76224 0.254941 0)
(2.54957 0.247794 0)
(2.33487 0.238761 0)
(2.11957 0.227901 0)
(1.90539 0.215352 0)
(1.69426 0.201345 0)
(1.48834 0.186192 0)
(1.28984 0.170261 0)
(1.10097 0.153957 0)
(0.923618 0.1377 0)
(0.759234 0.121921 0)
(0.608645 0.10718 0)
(0.471711 0.093846 0)
(0.348074 0.0819753 0)
(0.237397 0.0711245 0)
(0.139334 0.0607028 0)
(0.0537795 0.0504496 0)
(-0.0198432 0.0404287 0)
(-0.0825161 0.031204 0)
(-0.135674 0.0232692 0)
(-0.180263 0.01645 0)
(-0.216819 0.0099217 0)
(-0.245916 0.00324502 0)
(10.0002 0.0417813 0)
(10.0198 0.117276 0)
(10.0537 0.178916 0)
(10.0983 0.224503 0)
(10.1468 0.25657 0)
(10.1935 0.280049 0)
(10.2355 0.29931 0)
(10.2732 0.316685 0)
(10.3082 0.332559 0)
(10.3422 0.346428 0)
(10.376 0.357802 0)
(10.4096 0.366543 0)
(10.4428 0.37281 0)
(10.4748 0.376856 0)
(10.5055 0.378877 0)
(10.5345 0.378973 0)
(10.5616 0.377181 0)
(10.5867 0.373529 0)
(10.6096 0.368082 0)
(10.6301 0.360948 0)
(10.6482 0.352274 0)
(10.6636 0.342242 0)
(10.6764 0.331063 0)
(10.6863 0.318972 0)
(10.6935 0.30622 0)
(10.698 0.293058 0)
(10.6999 0.279735 0)
(10.6993 0.266481 0)
(10.6964 0.253501 0)
(10.6914 0.24097 0)
(10.6846 0.229027 0)
(10.6761 0.217776 0)
(10.6661 0.207288 0)
(10.6549 0.197599 0)
(10.6427 0.188724 0)
(10.6295 0.180653 0)
(10.6156 0.173362 0)
(10.6011 0.166802 0)
(10.586 0.160916 0)
(10.5705 0.155639 0)
(10.5546 0.150912 0)
(10.5383 0.146676 0)
(10.5217 0.142873 0)
(10.5048 0.139452 0)
(10.4876 0.136364 0)
(10.4701 0.133565 0)
(10.4524 0.131018 0)
(10.4345 0.128686 0)
(10.4163 0.126542 0)
(10.3978 0.12456 0)
(10.3792 0.122717 0)
(10.3602 0.120996 0)
(10.3411 0.11938 0)
(10.3217 0.117858 0)
(10.302 0.11642 0)
(10.2821 0.115056 0)
(10.262 0.113762 0)
(10.2416 0.112532 0)
(10.221 0.111363 0)
(10.2001 0.110253 0)
(10.179 0.109201 0)
(10.1577 0.108207 0)
(10.1361 0.107269 0)
(10.1143 0.10639 0)
(10.0922 0.105571 0)
(10.0699 0.104812 0)
(10.0473 0.104116 0)
(10.0245 0.103485 0)
(10.0014 0.102922 0)
(9.97809 0.102429 0)
(9.9545 0.102009 0)
(9.93064 0.101665 0)
(9.9065 0.1014 0)
(9.88208 0.101218 0)
(9.85736 0.101123 0)
(9.83234 0.101119 0)
(9.80699 0.101209 0)
(9.78131 0.101397 0)
(9.75527 0.101688 0)
(9.72887 0.102086 0)
(9.70208 0.102596 0)
(9.67487 0.103223 0)
(9.64724 0.103971 0)
(9.61914 0.104847 0)
(9.59056 0.105856 0)
(9.56146 0.107004 0)
(9.53181 0.108298 0)
(9.50157 0.109745 0)
(9.47071 0.11135 0)
(9.4392 0.113123 0)
(9.40697 0.11507 0)
(9.374 0.1172 0)
(9.34022 0.119521 0)
(9.30559 0.122044 0)
(9.27004 0.124777 0)
(9.23352 0.127729 0)
(9.19596 0.130913 0)
(9.15729 0.134338 0)
(9.11744 0.138015 0)
(9.07632 0.141957 0)
(9.03385 0.146175 0)
(8.98994 0.150682 0)
(8.94449 0.15549 0)
(8.89741 0.160611 0)
(8.84856 0.16606 0)
(8.79785 0.17185 0)
(8.74515 0.177992 0)
(8.69031 0.184501 0)
(8.63319 0.191389 0)
(8.57365 0.198668 0)
(8.51153 0.206349 0)
(8.44664 0.214443 0)
(8.3788 0.222958 0)
(8.30783 0.2319 0)
(8.23351 0.241276 0)
(8.15561 0.251087 0)
(8.07392 0.261334 0)
(7.98817 0.272012 0)
(7.89812 0.283112 0)
(7.80347 0.294621 0)
(7.70394 0.30652 0)
(7.59922 0.318783 0)
(7.48899 0.331375 0)
(7.37291 0.344253 0)
(7.25062 0.357363 0)
(7.12177 0.37064 0)
(6.98597 0.384005 0)
(6.84284 0.397365 0)
(6.69199 0.410609 0)
(6.53301 0.423609 0)
(6.36552 0.436218 0)
(6.18913 0.448267 0)
(6.00348 0.459562 0)
(5.80823 0.469889 0)
(5.60308 0.478999 0)
(5.3878 0.486623 0)
(5.16222 0.492469 0)
(4.92625 0.496225 0)
(4.67998 0.497565 0)
(4.4236 0.496156 0)
(4.15756 0.49166 0)
(3.88251 0.483748 0)
(3.59945 0.472122 0)
(3.30971 0.456552 0)
(3.01507 0.436915 0)
(2.71779 0.413241 0)
(2.42076 0.385783 0)
(2.12739 0.355057 0)
(1.84169 0.321855 0)
(1.56792 0.287304 0)
(1.31043 0.252712 0)
(1.07315 0.21942 0)
(0.858918 0.188457 0)
(0.66907 0.160814 0)
(0.502446 0.136984 0)
(0.356764 0.116586 0)
(0.229786 0.0982243 0)
(0.120463 0.0806963 0)
(0.0277975 0.0634374 0)
(-0.0500552 0.0466175 0)
(10.0001 0.0316628 0)
(10.0128 0.0917413 0)
(10.036 0.145038 0)
(10.0682 0.188699 0)
(10.1059 0.222282 0)
(10.1451 0.247719 0)
(10.1829 0.267814 0)
(10.2183 0.284869 0)
(10.2518 0.299982 0)
(10.2843 0.313284 0)
(10.3168 0.324519 0)
(10.3498 0.333475 0)
(10.383 0.340136 0)
(10.4162 0.344638 0)
(10.449 0.347159 0)
(10.4811 0.34785 0)
(10.5124 0.346812 0)
(10.5427 0.344125 0)
(10.5719 0.339865 0)
(10.5998 0.334134 0)
(10.6264 0.327059 0)
(10.6514 0.318794 0)
(10.6746 0.309518 0)
(10.6961 0.299426 0)
(10.7157 0.288727 0)
(10.7334 0.27763 0)
(10.7492 0.266342 0)
(10.7632 0.255057 0)
(10.7754 0.24395 0)
(10.7859 0.233172 0)
(10.7948 0.222849 0)
(10.8024 0.213077 0)
(10.8087 0.203926 0)
(10.8139 0.195438 0)
(10.8182 0.187635 0)
(10.8216 0.180518 0)
(10.8243 0.174067 0)
(10.8263 0.168249 0)
(10.8278 0.163017 0)
(10.8289 0.158323 0)
(10.8295 0.154118 0)
(10.8297 0.150357 0)
(10.8296 0.146998 0)
(10.8291 0.143997 0)
(10.8283 0.141315 0)
(10.8273 0.138914 0)
(10.8259 0.136758 0)
(10.8243 0.134816 0)
(10.8224 0.13306 0)
(10.8203 0.131466 0)
(10.8178 0.130011 0)
(10.8151 0.128678 0)
(10.8121 0.127451 0)
(10.8088 0.126319 0)
(10.8052 0.125269 0)
(10.8013 0.124295 0)
(10.7971 0.123389 0)
(10.7926 0.122547 0)
(10.7877 0.121766 0)
(10.7826 0.121042 0)
(10.7771 0.120376 0)
(10.7713 0.119766 0)
(10.7652 0.119213 0)
(10.7587 0.118718 0)
(10.7519 0.118282 0)
(10.7448 0.117907 0)
(10.7373 0.117596 0)
(10.7295 0.117351 0)
(10.7214 0.117176 0)
(10.7129 0.117073 0)
(10.704 0.117047 0)
(10.6948 0.117101 0)
(10.6852 0.117239 0)
(10.6753 0.117466 0)
(10.6649 0.117786 0)
(10.6542 0.118204 0)
(10.6431 0.118725 0)
(10.6316 0.119354 0)
(10.6196 0.120098 0)
(10.6073 0.120962 0)
(10.5944 0.121951 0)
(10.5812 0.123074 0)
(10.5674 0.124336 0)
(10.5532 0.125745 0)
(10.5384 0.127309 0)
(10.5232 0.129035 0)
(10.5073 0.130933 0)
(10.4909 0.133011 0)
(10.4739 0.135278 0)
(10.4563 0.137746 0)
(10.4379 0.140424 0)
(10.4189 0.143323 0)
(10.3992 0.146455 0)
(10.3787 0.149833 0)
(10.3573 0.15347 0)
(10.3351 0.157378 0)
(10.312 0.161573 0)
(10.288 0.166069 0)
(10.2629 0.170881 0)
(10.2367 0.176027 0)
(10.2095 0.181523 0)
(10.1809 0.187386 0)
(10.1512 0.193635 0)
(10.12 0.200289 0)
(10.0874 0.207367 0)
(10.0532 0.214889 0)
(10.0174 0.222876 0)
(9.97986 0.231348 0)
(9.94043 0.240326 0)
(9.89901 0.249833 0)
(9.85546 0.259887 0)
(9.80964 0.270512 0)
(9.7614 0.281726 0)
(9.71056 0.293549 0)
(9.65695 0.306 0)
(9.60038 0.319096 0)
(9.54063 0.33285 0)
(9.47749 0.347274 0)
(9.41071 0.362378 0)
(9.34005 0.378166 0)
(9.26521 0.394638 0)
(9.1859 0.411787 0)
(9.1018 0.429601 0)
(9.01257 0.44806 0)
(8.91784 0.467131 0)
(8.81721 0.486775 0)
(8.71027 0.506937 0)
(8.59655 0.527548 0)
(8.47559 0.548523 0)
(8.34688 0.569759 0)
(8.20988 0.591131 0)
(8.06403 0.61249 0)
(7.90873 0.633662 0)
(7.74338 0.654443 0)
(7.56732 0.674594 0)
(7.37992 0.693839 0)
(7.18052 0.711868 0)
(6.96846 0.728335 0)
(6.74314 0.742857 0)
(6.50395 0.755015 0)
(6.25039 0.764355 0)
(5.98204 0.770393 0)
(5.69865 0.772614 0)
(5.40015 0.770469 0)
(5.0867 0.763399 0)
(4.75882 0.750853 0)
(4.41741 0.732309 0)
(4.06388 0.70731 0)
(3.70025 0.675508 0)
(3.32929 0.636788 0)
(2.95465 0.591351 0)
(2.5811 0.539858 0)
(2.21462 0.483566 0)
(1.8624 0.424407 0)
(1.53212 0.36504 0)
(1.23096 0.308522 0)
(0.964273 0.257467 0)
(0.734527 0.213575 0)
(0.539765 0.177213 0)
(0.374542 0.146553 0)
(10.0001 0.0253328 0)
(10.0092 0.0742933 0)
(10.0261 0.11944 0)
(10.0502 0.158589 0)
(10.0797 0.190696 0)
(10.1121 0.216193 0)
(10.1451 0.236532 0)
(10.1773 0.253355 0)
(10.2083 0.267847 0)
(10.2386 0.280503 0)
(10.2688 0.291333 0)
(10.2993 0.300188 0)
(10.3301 0.306983 0)
(10.3611 0.311757 0)
(10.3921 0.314639 0)
(10.4226 0.315782 0)
(10.4527 0.315321 0)
(10.482 0.313364 0)
(10.5106 0.310004 0)
(10.5383 0.30534 0)
(10.5649 0.299485 0)
(10.5905 0.292571 0)
(10.6148 0.28475 0)
(10.6378 0.27619 0)
(10.6594 0.267066 0)
(10.6795 0.257558 0)
(10.6982 0.247842 0)
(10.7155 0.238085 0)
(10.7314 0.228437 0)
(10.746 0.219031 0)
(10.7594 0.209981 0)
(10.7716 0.201373 0)
(10.7829 0.193275 0)
(10.7933 0.185729 0)
(10.8029 0.178761 0)
(10.8119 0.172375 0)
(10.8202 0.16656 0)
(10.8281 0.161293 0)
(10.8356 0.156543 0)
(10.8427 0.152273 0)
(10.8494 0.148446 0)
(10.8559 0.145027 0)
(10.8622 0.14198 0)
(10.8682 0.13927 0)
(10.874 0.136862 0)
(10.8796 0.134723 0)
(10.8851 0.132822 0)
(10.8904 0.131131 0)
(10.8955 0.129623 0)
(10.9005 0.128276 0)
(10.9053 0.12707 0)
(10.9099 0.125988 0)
(10.9143 0.125016 0)
(10.9186 0.12414 0)
(10.9226 0.123353 0)
(10.9265 0.122645 0)
(10.9301 0.12201 0)
(10.9336 0.121444 0)
(10.9368 0.120943 0)
(10.9398 0.120505 0)
(10.9425 0.120129 0)
(10.9451 0.119814 0)
(10.9474 0.119561 0)
(10.9494 0.11937 0)
(10.9512 0.119244 0)
(10.9528 0.119184 0)
(10.954 0.119192 0)
(10.9551 0.119273 0)
(10.9558 0.119428 0)
(10.9563 0.119662 0)
(10.9565 0.119979 0)
(10.9564 0.120383 0)
(10.9561 0.120877 0)
(10.9554 0.121468 0)
(10.9544 0.12216 0)
(10.9532 0.122958 0)
(10.9516 0.123868 0)
(10.9496 0.124897 0)
(10.9474 0.12605 0)
(10.9448 0.127334 0)
(10.9418 0.128757 0)
(10.9385 0.130326 0)
(10.9348 0.132049 0)
(10.9307 0.133934 0)
(10.9262 0.135991 0)
(10.9213 0.138228 0)
(10.916 0.140657 0)
(10.9102 0.143287 0)
(10.9039 0.146129 0)
(10.8971 0.149196 0)
(10.8898 0.1525 0)
(10.882 0.156054 0)
(10.8736 0.159871 0)
(10.8647 0.163968 0)
(10.8551 0.168358 0)
(10.8449 0.173059 0)
(10.8339 0.178088 0)
(10.8223 0.183462 0)
(10.8099 0.189201 0)
(10.7967 0.195325 0)
(10.7827 0.201854 0)
(10.7678 0.20881 0)
(10.7519 0.216216 0)
(10.7351 0.224096 0)
(10.7171 0.232475 0)
(10.6981 0.241378 0)
(10.6778 0.250832 0)
(10.6563 0.260865 0)
(10.6334 0.271504 0)
(10.6091 0.28278 0)
(10.5832 0.29472 0)
(10.5557 0.307357 0)
(10.5265 0.32072 0)
(10.4953 0.334839 0)
(10.4621 0.349745 0)
(10.4268 0.365467 0)
(10.3892 0.382033 0)
(10.349 0.399471 0)
(10.3062 0.417805 0)
(10.2605 0.437058 0)
(10.2117 0.457249 0)
(10.1596 0.478391 0)
(10.1039 0.500496 0)
(10.0442 0.523566 0)
(9.9804 0.547596 0)
(9.91201 0.572572 0)
(9.8387 0.598471 0)
(9.76007 0.625254 0)
(9.67566 0.652869 0)
(9.58499 0.681246 0)
(9.48755 0.710297 0)
(9.38275 0.739909 0)
(9.26998 0.769945 0)
(9.14856 0.800239 0)
(9.01777 0.830597 0)
(8.87684 0.860789 0)
(8.72493 0.890552 0)
(8.56117 0.919579 0)
(8.38464 0.947524 0)
(8.19436 0.973994 0)
(7.98936 0.998551 0)
(7.7686 1.0207 0)
(7.53109 1.03991 0)
(7.27584 1.05554 0)
(7.00191 1.06693 0)
(6.7085 1.07333 0)
(6.39494 1.07396 0)
(6.06079 1.06801 0)
(5.70597 1.05465 0)
(5.33081 1.03308 0)
(4.93618 1.00255 0)
(4.52373 0.962446 0)
(4.09606 0.91229 0)
(3.65688 0.851881 0)
(3.21123 0.781505 0)
(2.76583 0.702217 0)
(2.32937 0.616169 0)
(1.91276 0.52681 0)
(1.52828 0.438929 0)
(1.18693 0.358031 0)
(10.0001 0.0208371 0)
(10.007 0.0615062 0)
(10.02 0.0997293 0)
(10.0387 0.134104 0)
(10.0623 0.163617 0)
(10.0892 0.188087 0)
(10.1177 0.2081 0)
(10.1466 0.224642 0)
(10.1751 0.238662 0)
(10.2033 0.250751 0)
(10.2314 0.261111 0)
(10.2596 0.269716 0)
(10.2882 0.276492 0)
(10.317 0.281433 0)
(10.3459 0.284614 0)
(10.3745 0.286163 0)
(10.4028 0.286215 0)
(10.4305 0.28489 0)
(10.4575 0.282294 0)
(10.4839 0.278524 0)
(10.5093 0.273684 0)
(10.5339 0.26789 0)
(10.5574 0.261273 0)
(10.5798 0.253977 0)
(10.6011 0.246153 0)
(10.6211 0.237955 0)
(10.64 0.229532 0)
(10.6576 0.22103 0)
(10.6741 0.212581 0)
(10.6895 0.2043 0)
(10.7038 0.196289 0)
(10.7172 0.188628 0)
(10.7298 0.181379 0)
(10.7415 0.174586 0)
(10.7526 0.168275 0)
(10.7631 0.162456 0)
(10.7731 0.157127 0)
(10.7827 0.152273 0)
(10.7918 0.147875 0)
(10.8007 0.143907 0)
(10.8093 0.140341 0)
(10.8177 0.137148 0)
(10.8259 0.134298 0)
(10.8339 0.131762 0)
(10.8417 0.129511 0)
(10.8495 0.127515 0)
(10.8571 0.125748 0)
(10.8646 0.124184 0)
(10.872 0.122801 0)
(10.8793 0.121577 0)
(10.8865 0.120495 0)
(10.8936 0.119539 0)
(10.9005 0.118696 0)
(10.9074 0.117954 0)
(10.9142 0.117306 0)
(10.9208 0.116742 0)
(10.9273 0.116258 0)
(10.9337 0.115848 0)
(10.9399 0.115509 0)
(10.946 0.115239 0)
(10.952 0.115037 0)
(10.9578 0.114902 0)
(10.9635 0.114835 0)
(10.969 0.114836 0)
(10.9743 0.114907 0)
(10.9795 0.11505 0)
(10.9845 0.115268 0)
(10.9893 0.115563 0)
(10.9939 0.115939 0)
(10.9984 0.1164 0)
(11.0027 0.11695 0)
(11.0068 0.117592 0)
(11.0107 0.118332 0)
(11.0143 0.119175 0)
(11.0178 0.120126 0)
(11.0211 0.121191 0)
(11.0241 0.122375 0)
(11.0269 0.123686 0)
(11.0295 0.125129 0)
(11.0318 0.126714 0)
(11.0339 0.128446 0)
(11.0358 0.130335 0)
(11.0373 0.132389 0)
(11.0386 0.134617 0)
(11.0396 0.137029 0)
(11.0403 0.139635 0)
(11.0407 0.142447 0)
(11.0408 0.145475 0)
(11.0406 0.148732 0)
(11.04 0.152231 0)
(11.0391 0.155986 0)
(11.0378 0.160011 0)
(11.0361 0.164321 0)
(11.034 0.168933 0)
(11.0314 0.173864 0)
(11.0284 0.179132 0)
(11.025 0.184756 0)
(11.021 0.190756 0)
(11.0166 0.197154 0)
(11.0116 0.203971 0)
(11.006 0.211232 0)
(10.9998 0.218961 0)
(10.993 0.227183 0)
(10.9855 0.235927 0)
(10.9773 0.24522 0)
(10.9684 0.255093 0)
(10.9586 0.265575 0)
(10.948 0.276701 0)
(10.9365 0.288502 0)
(10.9241 0.301015 0)
(10.9106 0.314274 0)
(10.896 0.328317 0)
(10.8803 0.343182 0)
(10.8634 0.358907 0)
(10.8451 0.375531 0)
(10.8254 0.393095 0)
(10.8042 0.411637 0)
(10.7813 0.431197 0)
(10.7567 0.451814 0)
(10.7301 0.473524 0)
(10.7015 0.496363 0)
(10.6707 0.520365 0)
(10.6375 0.545559 0)
(10.6017 0.57197 0)
(10.563 0.599619 0)
(10.5212 0.628519 0)
(10.476 0.658676 0)
(10.4272 0.690085 0)
(10.3743 0.722729 0)
(10.317 0.75658 0)
(10.2548 0.79159 0)
(10.1873 0.827695 0)
(10.114 0.864808 0)
(10.0342 0.90282 0)
(9.94731 0.941596 0)
(9.85265 0.980967 0)
(9.7494 1.02074 0)
(9.6367 1.06066 0)
(9.51363 1.10046 0)
(9.37914 1.1398 0)
(9.23213 1.1783 0)
(9.07141 1.21552 0)
(8.8957 1.25096 0)
(8.70366 1.28404 0)
(8.49388 1.31412 0)
(8.2649 1.34049 0)
(8.01527 1.36236 0)
(7.74353 1.37885 0)
(7.44831 1.38904 0)
(7.12831 1.3919 0)
(6.78251 1.38633 0)
(6.41016 1.3712 0)
(6.011 1.34534 0)
(5.5854 1.3076 0)
(5.13454 1.25694 0)
(4.6607 1.19258 0)
(4.16768 1.11413 0)
(3.66103 1.02169 0)
(3.14849 0.91618 0)
(2.6405 0.79992 0)
(10.0001 0.017442 0)
(10.0056 0.051677 0)
(10.016 0.0842463 0)
(10.0311 0.114219 0)
(10.0503 0.14079 0)
(10.0729 0.163586 0)
(10.0976 0.18274 0)
(10.1233 0.198761 0)
(10.1494 0.212284 0)
(10.1755 0.223831 0)
(10.2017 0.233689 0)
(10.2281 0.241934 0)
(10.2547 0.24855 0)
(10.2816 0.253524 0)
(10.3085 0.256897 0)
(10.3354 0.258764 0)
(10.3621 0.259241 0)
(10.3883 0.258447 0)
(10.4139 0.256488 0)
(10.4389 0.253463 0)
(10.4632 0.249471 0)
(10.4867 0.244615 0)
(10.5093 0.239012 0)
(10.531 0.232783 0)
(10.5516 0.22606 0)
(10.5712 0.218975 0)
(10.5897 0.211659 0)
(10.6072 0.204237 0)
(10.6236 0.196822 0)
(10.6391 0.189519 0)
(10.6537 0.182416 0)
(10.6674 0.175586 0)
(10.6803 0.169088 0)
(10.6925 0.162964 0)
(10.704 0.157241 0)
(10.715 0.151933 0)
(10.7255 0.147044 0)
(10.7356 0.142568 0)
(10.7454 0.138493 0)
(10.7548 0.134801 0)
(10.764 0.131471 0)
(10.7729 0.128479 0)
(10.7817 0.125802 0)
(10.7902 0.123415 0)
(10.7987 0.121292 0)
(10.807 0.11941 0)
(10.8152 0.117744 0)
(10.8233 0.116273 0)
(10.8313 0.114977 0)
(10.8392 0.113837 0)
(10.847 0.112838 0)
(10.8548 0.111965 0)
(10.8624 0.111207 0)
(10.87 0.110554 0)
(10.8775 0.109996 0)
(10.8849 0.109526 0)
(10.8922 0.10914 0)
(10.8994 0.108832 0)
(10.9065 0.1086 0)
(10.9136 0.108441 0)
(10.9205 0.108354 0)
(10.9273 0.108339 0)
(10.934 0.108395 0)
(10.9406 0.108525 0)
(10.9471 0.108728 0)
(10.9534 0.109007 0)
(10.9597 0.109366 0)
(10.9658 0.109806 0)
(10.9718 0.110331 0)
(10.9776 0.110945 0)
(10.9833 0.111652 0)
(10.9889 0.112456 0)
(10.9944 0.113363 0)
(10.9996 0.114377 0)
(11.0048 0.115504 0)
(11.0098 0.11675 0)
(11.0146 0.118122 0)
(11.0193 0.119625 0)
(11.0238 0.121268 0)
(11.0281 0.123058 0)
(11.0322 0.125002 0)
(11.0362 0.127111 0)
(11.04 0.129392 0)
(11.0436 0.131856 0)
(11.0469 0.134512 0)
(11.0501 0.137371 0)
(11.053 0.140446 0)
(11.0558 0.143748 0)
(11.0583 0.14729 0)
(11.0605 0.151086 0)
(11.0625 0.155149 0)
(11.0642 0.159497 0)
(11.0657 0.164144 0)
(11.0669 0.169108 0)
(11.0678 0.174407 0)
(11.0683 0.180061 0)
(11.0686 0.186089 0)
(11.0685 0.192513 0)
(11.068 0.199355 0)
(11.0672 0.206639 0)
(11.066 0.214391 0)
(11.0644 0.222637 0)
(11.0624 0.231404 0)
(11.0599 0.240722 0)
(11.057 0.250621 0)
(11.0535 0.261134 0)
(11.0496 0.272294 0)
(11.0451 0.284137 0)
(11.04 0.296698 0)
(11.0343 0.310018 0)
(11.0279 0.324134 0)
(11.0208 0.339089 0)
(11.0131 0.354926 0)
(11.0045 0.371688 0)
(10.9951 0.38942 0)
(10.9849 0.40817 0)
(10.9736 0.427983 0)
(10.9614 0.448908 0)
(10.9481 0.470992 0)
(10.9336 0.494284 0)
(10.9179 0.518832 0)
(10.9008 0.544681 0)
(10.8822 0.571878 0)
(10.862 0.600464 0)
(10.84 0.630481 0)
(10.8161 0.661962 0)
(10.7902 0.694939 0)
(10.7619 0.729435 0)
(10.731 0.765466 0)
(10.6974 0.803038 0)
(10.6607 0.842145 0)
(10.6205 0.882767 0)
(10.5764 0.92487 0)
(10.5281 0.9684 0)
(10.4751 1.01328 0)
(10.4167 1.05942 0)
(10.3524 1.10668 0)
(10.2814 1.15491 0)
(10.203 1.2039 0)
(10.1162 1.25342 0)
(10.0201 1.30317 0)
(9.91366 1.35281 0)
(9.79555 1.40193 0)
(9.66448 1.45006 0)
(9.51901 1.49666 0)
(9.35754 1.54109 0)
(9.1784 1.58263 0)
(8.97976 1.62047 0)
(8.75973 1.65369 0)
(8.51634 1.68128 0)
(8.2476 1.70211 0)
(7.95153 1.71495 0)
(7.62627 1.71845 0)
(7.27015 1.71121 0)
(6.8818 1.69169 0)
(6.46037 1.65834 0)
(6.00576 1.60965 0)
(5.51888 1.54415 0)
(5.00189 1.46068 0)
(4.45884 1.35855 0)
(10 0.0147646 0)
(10.0046 0.0438386 0)
(10.0132 0.0717488 0)
(10.0257 0.0978087 0)
(10.0419 0.121428 0)
(10.0611 0.142214 0)
(10.0826 0.160096 0)
(10.1056 0.175287 0)
(10.1293 0.188165 0)
(10.1535 0.19912 0)
(10.1779 0.20843 0)
(10.2025 0.216234 0)
(10.2274 0.222568 0)
(10.2526 0.227443 0)
(10.278 0.230884 0)
(10.3033 0.232958 0)
(10.3285 0.233758 0)
(10.3533 0.233389 0)
(10.3778 0.231954 0)
(10.4016 0.22955 0)
(10.4249 0.226271 0)
(10.4474 0.222212 0)
(10.4692 0.217475 0)
(10.4901 0.212168 0)
(10.5102 0.206402 0)
(10.5293 0.200292 0)
(10.5475 0.193951 0)
(10.5648 0.187487 0)
(10.5812 0.180999 0)
(10.5966 0.174579 0)
(10.6112 0.168305 0)
(10.6251 0.162242 0)
(10.6382 0.156445 0)
(10.6506 0.150953 0)
(10.6625 0.145795 0)
(10.6738 0.140987 0)
(10.6846 0.136537 0)
(10.695 0.132444 0)
(10.705 0.128703 0)
(10.7147 0.1253 0)
(10.7241 0.122221 0)
(10.7333 0.119447 0)
(10.7423 0.116958 0)
(10.7511 0.114733 0)
(10.7598 0.112752 0)
(10.7683 0.110994 0)
(10.7767 0.10944 0)
(10.785 0.10807 0)
(10.7931 0.106866 0)
(10.8012 0.105815 0)
(10.8092 0.1049 0)
(10.8171 0.104109 0)
(10.8249 0.103433 0)
(10.8327 0.10286 0)
(10.8403 0.102385 0)
(10.8479 0.101999 0)
(10.8554 0.101698 0)
(10.8628 0.101478 0)
(10.8702 0.101336 0)
(10.8774 0.101269 0)
(10.8845 0.101277 0)
(10.8916 0.101359 0)
(10.8986 0.101515 0)
(10.9054 0.101746 0)
(10.9122 0.102054 0)
(10.9189 0.102441 0)
(10.9254 0.10291 0)
(10.9319 0.103463 0)
(10.9383 0.104103 0)
(10.9445 0.104836 0)
(10.9507 0.105664 0)
(10.9567 0.106592 0)
(10.9626 0.107626 0)
(10.9684 0.10877 0)
(10.9741 0.110031 0)
(10.9796 0.111415 0)
(10.985 0.112927 0)
(10.9903 0.114576 0)
(10.9955 0.116368 0)
(11.0005 0.118311 0)
(11.0054 0.120415 0)
(11.0101 0.122686 0)
(11.0147 0.125136 0)
(11.0191 0.127774 0)
(11.0233 0.130611 0)
(11.0274 0.133657 0)
(11.0314 0.136925 0)
(11.0351 0.140427 0)
(11.0387 0.144177 0)
(11.0421 0.148188 0)
(11.0453 0.152476 0)