/*--------------------------------*- C++ -*----------------------------------*\
| =========                 |                                                 |
| \\      /  F ield         | OpenFOAM: The Open Source CFD Toolbox           |
|  \\    /   O peration     | Version:  2306                                  |
|   \\  /    A nd           | Website:  www.openfoam.com                      |
|    \\/     M anipulation  |                                                 |
\*---------------------------------------------------------------------------*/
FoamFile
{
    version     2.0;
    format      ascii;
    arch        "LSB;label=32;scalar=64";
    class       volScalarField;
    location    "0.225";
    object      p;
}
// * * * * * * * * * * * * * * * * * * * * * * * * * * * * * * * * * * * * * //

dimensions      [0 2 -2 0 0 0 0];

internalField   nonuniform List<scalar> 
4400
(
467.953
466.938
466.031
465.359
464.909
464.602
464.358
464.129
463.896
463.656
463.41
463.162
462.915
462.67
462.426
462.182
461.939
461.696
461.452
461.208
460.964
460.72
460.476
460.233
459.991
459.75
459.512
459.276
459.043
458.814
458.588
458.368
458.152
457.943
457.74
457.545
457.357
457.178
457.009
456.849
456.701
456.563
456.437
456.324
456.223
456.136
456.062
456.001
455.953
455.918
455.894
455.881
455.877
455.879
455.884
455.888
455.886
455.871
455.838
455.779
455.688
455.557
455.388
455.186
455.009
454.897
454.934
455.19
455.712
456.448
457.319
458.009
458.243
457.985
457.825
457.63
457.952
458.112
457.908
458.139
466.491
466.149
465.717
465.275
464.884
464.559
464.291
464.056
463.832
463.607
463.377
463.14
462.899
462.656
462.413
462.171
461.928
461.686
461.444
461.201
460.958
460.715
460.472
460.23
459.988
459.749
459.511
459.275
459.042
458.813
458.588
458.367
458.152
457.942
457.739
457.542
457.354
457.173
457.003
456.841
456.69
456.549
456.421
456.304
456.2
456.109
456.03
455.966
455.913
455.874
455.845
455.828
455.818
455.816
455.816
455.817
455.811
455.795
455.76
455.702
455.61
455.483
455.316
455.126
454.944
454.843
454.894
455.207
455.822
456.749
457.845
458.772
458.743
457.896
457.43
457.011
457.142
457.665
457.872
458.247
465.945
465.78
465.523
465.205
464.871
464.556
464.275
464.025
463.796
463.575
463.351
463.123
462.888
462.648
462.407
462.164
461.922
461.68
461.438
461.196
460.954
460.711
460.469
460.228
459.987
459.748
459.51
459.275
459.042
458.812
458.586
458.365
458.148
457.937
457.731
457.533
457.341
457.157
456.981
456.815
456.657
456.51
456.373
456.246
456.131
456.027
455.933
455.853
455.782
455.723
455.673
455.633
455.599
455.571
455.545
455.517
455.486
455.444
455.391
455.316
455.224
455.107
454.98
454.851
454.765
454.776
454.942
455.299
455.854
456.582
457.348
457.903
458.062
457.86
457.804
457.729
458.012
458.738
458.02
457.249
465.53
465.43
465.257
465.024
464.758
464.485
464.223
463.978
463.748
463.527
463.308
463.086
462.858
462.625
462.388
462.148
461.908
461.667
461.426
461.185
460.944
460.703
460.462
460.221
459.98
459.742
459.504
459.269
459.035
458.805
458.578
458.355
458.136
457.923
457.714
457.512
457.316
457.126
456.945
456.77
456.605
456.447
456.3
456.159
456.031
455.909
455.8
455.697
455.606
455.523
455.446
455.378
455.313
455.254
455.192
455.132
455.064
454.992
454.908
454.813
454.709
454.596
454.491
454.404
454.372
454.417
454.579
454.855
455.259
455.746
456.281
456.73
457.064
457.221
457.287
457.258
457.214
457.176
456.967
457.437
465.23
465.162
465.037
464.863
464.651
464.418
464.18
463.946
463.719
463.498
463.279
463.06
462.836
462.607
462.374
462.138
461.899
461.659
461.419
461.178
460.937
460.697
460.456
460.215
459.974
459.736
459.497
459.261
459.027
458.795
458.567
458.342
458.121
457.904
457.692
457.485
457.284
457.088
456.9
456.716
456.543
456.373
456.216
456.06
455.919
455.779
455.653
455.529
455.416
455.307
455.204
455.106
455.008
454.916
454.818
454.724
454.616
454.513
454.392
454.274
454.144
454.024
453.909
453.825
453.778
453.791
453.879
454.043
454.296
454.608
454.974
455.329
455.649
455.881
456.012
456.112
456.198
456.488
456.989
457.714
465.011
464.96
464.864
464.725
464.55
464.349
464.134
463.913
463.692
463.472
463.254
463.036
462.814
462.588
462.358
462.125
461.888
461.65
461.41
461.17
460.929
460.688
460.447
460.206
459.966
459.726
459.487
459.25
459.014
458.781
458.551
458.323
458.099
457.878
457.662
457.451
457.243
457.042
456.846
456.655
456.471
456.293
456.12
455.955
455.795
455.642
455.495
455.352
455.217
455.082
454.954
454.825
454.7
454.57
454.442
454.308
454.169
454.027
453.874
453.724
453.564
453.417
453.271
453.152
453.057
453.005
453.001
453.054
453.163
453.332
453.529
453.764
453.97
454.171
454.33
454.513
454.763
455.176
455.781
456.5
464.852
464.811
464.731
464.613
464.463
464.285
464.089
463.881
463.667
463.451
463.234
463.016
462.795
462.571
462.343
462.112
461.877
461.64
461.401
461.161
460.92
460.679
460.438
460.195
459.955
459.714
459.475
459.236
458.999
458.763
458.53
458.3
458.072
457.849
457.626
457.412
457.196
456.991
456.784
456.588
456.392
456.205
456.02
455.841
455.667
455.497
455.333
455.169
455.014
454.852
454.702
454.541
454.39
454.225
454.069
453.895
453.728
453.542
453.362
453.167
452.977
452.784
452.596
452.426
452.26
452.139
452.024
451.976
451.94
451.967
452.01
452.089
452.177
452.281
452.403
452.573
452.838
453.217
453.779
454.495
464.741
464.704
464.633
464.529
464.394
464.233
464.051
463.853
463.646
463.434
463.218
463
462.78
462.556
462.33
462.1
461.867
461.631
461.392
461.152
460.911
460.669
460.427
460.184
459.943
459.701
459.46
459.219
458.98
458.743
458.506
458.273
458.041
457.814
457.587
457.366
457.146
456.933
456.72
456.514
456.31
456.11
455.915
455.722
455.534
455.347
455.166
454.982
454.806
454.623
454.447
454.261
454.08
453.887
453.697
453.491
453.287
453.068
452.846
452.616
452.377
452.141
451.896
451.661
451.427
451.21
451.006
450.826
450.668
450.536
450.429
450.347
450.29
450.26
450.275
450.347
450.508
450.795
451.23
451.863
464.67
464.635
464.57
464.473
464.348
464.196
464.023
463.833
463.631
463.421
463.206
462.989
462.768
462.546
462.32
462.091
461.859
461.622
461.384
461.144
460.902
460.66
460.416
460.173
459.929
459.686
459.442
459.201
458.958
458.72
458.479
458.243
458.008
457.774
457.545
457.316
457.092
456.869
456.651
456.434
456.223
456.01
455.806
455.598
455.398
455.195
454.996
454.796
454.597
454.394
454.192
453.984
453.77
453.557
453.325
453.099
452.849
452.602
452.334
452.064
451.777
451.485
451.185
450.873
450.568
450.25
449.946
449.638
449.349
449.057
448.797
448.533
448.314
448.112
447.962
447.869
447.868
447.98
448.247
448.705
464.634
464.601
464.538
464.444
464.324
464.177
464.008
463.822
463.622
463.414
463.2
462.982
462.761
462.538
462.313
462.084
461.851
461.614
461.376
461.135
460.892
460.65
460.403
460.16
459.914
459.669
459.424
459.18
458.935
458.693
458.449
458.21
457.97
457.733
457.498
457.263
457.033
456.803
456.578
456.351
456.132
455.906
455.695
455.47
455.26
455.039
454.825
454.608
454.387
454.168
453.938
453.711
453.467
453.23
452.964
452.709
452.423
452.139
451.832
451.515
451.178
450.831
450.464
450.081
449.694
449.272
448.868
448.423
447.993
447.548
447.102
446.663
446.24
445.826
445.475
445.152
444.934
444.817
444.852
445.074
464.634
464.6
464.536
464.443
464.322
464.175
464.007
463.82
463.62
463.412
463.197
462.979
462.758
462.535
462.309
462.079
461.845
461.608
461.369
461.127
460.883
460.639
460.391
460.146
459.898
459.652
459.404
459.157
458.91
458.664
458.418
458.174
457.93
457.687
457.448
457.206
456.972
456.733
456.501
456.266
456.037
455.802
455.578
455.342
455.119
454.885
454.653
454.423
454.178
453.944
453.69
453.44
453.173
452.907
452.613
452.33
452.005
451.687
451.338
450.973
450.59
450.181
449.748
449.295
448.81
448.304
447.765
447.207
446.618
445.998
445.381
444.717
444.069
443.431
442.787
442.22
441.715
441.304
441.073
440.996
464.667
464.633
464.566
464.469
464.344
464.192
464.019
463.828
463.626
463.415
463.199
462.98
462.758
462.536
462.307
462.077
461.841
461.602
461.363
461.119
460.874
460.627
460.378
460.132
459.881
459.633
459.383
459.132
458.884
458.633
458.384
458.135
457.888
457.639
457.396
457.147
456.907
456.661
456.42
456.18
455.937
455.699
455.458
455.215
454.977
454.729
454.484
454.236
453.975
453.723
453.447
453.176
452.888
452.591
452.275
451.958
451.601
451.249
450.856
450.449
450.01
449.549
449.045
448.518
447.95
447.327
446.693
445.978
445.238
444.458
443.598
442.74
441.825
440.881
439.962
439.05
438.192
437.451
436.835
436.456
464.737
464.7
464.628
464.523
464.388
464.226
464.044
463.845
463.638
463.423
463.206
462.986
462.763
462.54
462.309
462.077
461.839
461.599
461.357
461.111
460.866
460.615
460.367
460.116
459.865
459.614
459.36
459.107
458.855
458.6
458.348
458.095
457.842
457.59
457.34
457.086
456.84
456.586
456.339
456.091
455.837
455.593
455.338
455.088
454.836
454.574
454.318
454.052
453.775
453.508
453.209
452.919
452.612
452.283
451.952
451.595
451.214
450.824
450.395
449.934
449.464
448.922
448.372
447.767
447.097
446.403
445.619
444.785
443.884
442.89
441.853
440.701
439.517
438.26
436.938
435.666
434.368
433.178
432.114
431.291
464.847
464.805
464.723
464.605
464.454
464.276
464.079
463.87
463.656
463.436
463.217
462.996
462.773
462.547
462.314
462.08
461.838
461.597
461.352
461.105
460.857
460.604
460.355
460.101
459.848
459.593
459.337
459.081
458.824
458.567
458.31
458.053
457.795
457.539
457.283
457.022
456.772
456.507
456.258
455.997
455.737
455.488
455.214
454.965
454.692
454.422
454.157
453.868
453.585
453.296
452.978
452.675
452.342
451.987
451.646
451.243
450.847
450.418
449.947
449.46
448.922
448.348
447.716
447.05
446.302
445.483
444.627
443.613
442.565
441.401
440.069
438.715
437.173
435.524
433.82
432.047
430.188
428.45
426.819
425.372
465.004
464.953
464.854
464.715
464.539
464.338
464.122
463.899
463.677
463.453
463.234
463.01
462.788
462.558
462.322
462.084
461.839
461.596
461.347
461.1
460.848
460.595
460.342
460.087
459.831
459.573
459.314
459.054
458.794
458.533
458.271
458.01
457.746
457.487
457.223
456.959
456.701
456.429
456.176
455.902
455.639
455.379
455.094
454.841
454.551
454.275
453.997
453.689
453.402
453.087
452.758
452.443
452.076
451.72
451.334
450.925
450.487
450.04
449.527
448.998
448.44
447.77
447.137
446.364
445.534
444.68
443.63
442.543
441.34
439.918
438.421
436.751
434.831
432.789
430.589
428.185
425.696
423.203
420.759
418.533
465.222
465.152
465.025
464.851
464.637
464.406
464.165
463.93
463.7
463.475
463.255
463.03
462.805
462.569
462.332
462.088
461.842
461.595
461.345
461.095
460.84
460.586
460.33
460.072
459.813
459.551
459.291
459.025
458.763
458.497
458.231
457.968
457.694
457.436
457.159
456.896
456.627
456.349
456.095
455.803
455.547
455.264
454.981
454.717
454.409
454.138
453.835
453.521
453.225
452.885
452.552
452.216
451.829
451.458
451.057
450.604
450.176
449.667
449.141
448.588
447.956
447.283
446.569
445.746
444.851
443.899
442.762
441.551
440.189
438.59
436.87
434.893
432.618
430.071
427.331
424.173
420.798
417.401
413.874
410.419
465.522
465.419
465.242
465.011
464.743
464.472
464.206
463.96
463.726
463.502
463.281
463.052
462.823
462.581
462.34
462.09
461.843
461.592
461.342
461.088
460.833
460.576
460.316
460.057
459.793
459.53
459.264
458.996
458.73
458.459
458.19
457.921
457.642
457.381
457.093
456.833
456.549
456.272
456.008
455.706
455.452
455.149
454.867
454.592
454.267
454.001
453.67
453.36
453.057
452.689
452.368
451.989
451.606
451.215
450.783
450.336
449.847
449.359
448.755
448.22
447.529
446.815
446.099
445.157
444.253
443.228
441.948
440.691
439.189
437.362
435.507
433.278
430.491
427.617
424.17
420.021
415.666
410.913
405.832
400.801
465.937
465.767
465.507
465.191
464.855
464.541
464.256
464.006
463.772
463.548
463.321
463.086
462.848
462.6
462.353
462.1
461.851
461.595
461.346
461.086
460.831
460.569
460.307
460.045
459.777
459.511
459.242
458.968
458.702
458.421
458.154
457.874
457.596
457.326
457.032
456.772
456.472
456.202
455.918
455.621
455.354
455.042
454.763
454.465
454.153
453.861
453.538
453.215
452.891
452.53
452.19
451.79
451.423
450.977
450.57
450.068
449.6
449.062
448.441
447.923
447.113
446.463
445.693
444.588
443.827
442.588
441.265
440.016
438.267
436.364
434.427
431.747
428.828
425.496
421.265
416.199
410.484
403.72
396.241
388.888
466.481
466.136
465.701
465.261
464.867
464.543
464.271
464.034
463.807
463.578
463.344
463.101
462.856
462.606
462.355
462.102
461.851
461.595
461.344
461.081
460.825
460.56
460.296
460.031
459.76
459.491
459.219
458.941
458.672
458.385
458.116
457.829
457.549
457.272
456.975
456.71
456.402
456.132
455.835
455.54
455.26
454.948
454.661
454.35
454.042
453.729
453.409
453.081
452.734
452.391
452.027
451.637
451.261
450.801
450.407
449.842
449.435
448.792
448.218
447.685
446.74
446.253
445.274
444.274
443.375
442.223
440.666
439.52
437.585
435.633
433.503
430.753
427.266
424.082
418.682
413.391
405.498
396.436
384.182
372.136
467.94
466.926
466.017
465.345
464.892
464.585
464.337
464.106
463.87
463.625
463.376
463.122
462.871
462.617
462.365
462.113
461.858
461.604
461.347
461.086
460.824
460.56
460.292
460.026
459.753
459.482
459.207
458.929
458.654
458.371
458.092
457.809
457.523
457.244
456.949
456.672
456.376
456.089
455.802
455.5
455.214
454.913
454.605
454.32
453.989
453.688
453.367
453.021
452.7
452.337
451.968
451.597
451.182
450.766
450.318
449.806
449.36
448.681
448.251
447.442
446.807
446.087
445.153
444.187
443.304
441.948
440.7
439.277
437.512
435.276
433.381
430.085
427.229
422.969
418.323
411.71
403.766
391.648
375.605
351.064
458.437
458.667
458.752
458.729
458.468
457.995
457.342
456.784
456.368
456.1
455.787
455.618
455.197
454.257
453.11
452.991
454.373
456.856
458.892
459.792
458.682
458.687
458.738
458.79
458.544
457.999
457.22
456.564
456.169
456.061
455.782
455.14
454.106
452.639
451.369
451.197
452.557
454.885
457.121
458.44
457.398
458.461
459.109
459.156
458.753
458.056
457.224
456.47
455.932
455.429
454.746
453.657
452.054
450.132
448.629
448.423
449.812
452.049
454.243
455.9
459.04
459.841
459.139
459.322
459.529
458.745
457.621
456.694
456.043
455.275
453.968
452.159
450.012
447.903
446.382
446.183
447.542
449.879
451.828
453.474
458.572
458.984
460.215
461.795
460.617
459.199
458.531
457.742
456.776
455.297
453.321
450.983
448.483
446.283
444.732
444.48
445.94
448.49
450.075
451.662
457.408
458.479
459.802
460.508
460.75
461.025
459.976
458.128
457.291
455.507
453.098
450.099
447.233
445.104
443.709
443.78
445.316
447.96
449.067
451.041
455.445
456.572
457.748
458.785
459.621
459.823
459.319
458.973
457.668
455.223
452.747
449.892
447.263
445.219
444.007
444.057
445.482
448.068
449.819
452.68
452.693
453.706
454.833
455.993
456.949
457.525
457.614
457.281
456.227
454.622
452.326
449.983
448.292
447.244
446.884
447.763
449.286
451.495
453.581
456.619
449.342
450.214
451.214
452.282
453.34
454.13
454.626
454.637
454.101
453.134
451.875
450.43
448.761
446.173
444.578
444.805
446.688
449.696
452.96
456.991
445.517
446.134
447.014
447.976
448.993
449.994
450.83
451.428
451.867
451.981
451.585
451.095
452.663
451.676
451.245
454.781
456.309
457.906
459.96
464.83
441.18
441.587
442.23
443.125
444.155
445.289
446.474
447.797
449.47
452.336
457
461.426
458.857
444.174
438.569
441.425
450.266
456.011
459.015
462.987
436.276
436.444
436.895
437.651
438.747
440.128
441.772
443.63
445.663
447.115
447.336
445.262
440.694
439.911
443.501
448.27
454.564
460.328
464.351
466.171
430.724
430.54
430.806
431.513
432.625
434.243
436.303
438.73
441.396
443.617
445.147
446.029
446.563
448.65
452.41
456.05
459.078
460.858
461.725
462.079
424.293
423.709
423.659
424.352
425.775
427.698
429.984
432.332
434.805
437.61
440.793
444.274
447.546
450.722
453.411
456.184
459.468
462.206
463.87
464.955
416.742
415.595
415.225
415.712
417.418
420.355
424.168
428.039
431.321
433.841
436.336
439.837
444.537
449.035
453.108
457.471
461.251
463.559
464.761
465.811
407.617
405.696
405.06
405.713
407.602
410.595
414.526
419.106
423.983
428.984
434.107
438.784
443.458
448.264
453.151
458.139
462.253
465.109
467.096
468.081
396.234
392.858
391.474
393.274
397.837
403.146
407.82
411.507
415.218
420.656
427.68
434.421
440.593
446.12
451.481
457.26
462.155
465.532
467.552
468.445
382.109
376.652
374.164
375.621
381.166
388.917
397.347
404.967
411.396
417.061
423.063
429.541
436.126
442.379
448.652
454.943
460.299
464.222
466.815
468.218
360.029
353.294
354.114
360.562
367.911
374.909
382.553
391.639
401.269
410.071
417.516
424.482
431.399
438.261
444.806
451.184
457.191
461.858
464.9
466.262
321.638
310.382
317.624
334.138
351.263
365.156
374.841
382.499
391.127
400.766
409.829
418.069
425.661
432.988
439.878
446.367
452.503
457.71
461.151
462.316
276.626
275.355
282.771
299.278
321.601
344.588
361.926
373.089
382.323
391.925
401.579
410.381
418.381
426.139
433.347
439.954
446.563
451.941
454.767
455.644
280.853
271.43
270.078
279.734
300.987
324.173
344.764
360.473
372.262
382.727
392.83
402.168
410.547
418.561
426.054
432.882
439.051
443.656
446.187
447.485
276.982
273.78
269.683
275.031
295.366
312.547
328.909
345.943
360.585
372.678
383.369
393.203
402.182
410.56
417.981
424.433
430.198
435.027
438.22
439.244
285.819
280.896
279.471
286.381
300.982
310.936
317.715
331.646
347.906
361.738
373.2
383.255
392.544
401.334
409.073
415.697
421.659
426.217
428.789
429.598
285.428
285.502
287.005
295.233
306.55
309.858
312.182
320.561
335.541
350.021
362.001
372.382
382.103
391.415
399.758
406.557
412.05
416.274
418.816
420.092
286.394
284.509
291.626
295.42
311.852
305.669
311.77
310.971
323.083
337.14
349.835
361.325
371.667
381.076
389.243
396.09
401.966
406.803
409.971
410.795
286.561
284.338
291.172
295.331
306.251
302.703
302.211
303.739
309.996
322.235
336.121
348.949
360.439
370.58
379.06
386.094
392.159
396.858
399.668
400.68
287.257
285.629
285.995
288.328
290.909
291.697
290.833
295.199
296.072
305.873
320.523
335.339
348.596
359.746
368.821
376.174
382.434
387.39
390.318
391.434
285.565
283.832
276.018
272.819
269.546
269.36
269.428
273.965
278.506
287.735
304.013
321.464
336.699
348.951
358.629
366.481
372.985
377.983
381.112
382.12
276.608
271.31
258.855
248.291
240.726
236.835
237.035
245.765
255.554
267.07
286.79
307.7
325.06
338.302
348.713
356.947
363.751
368.925
372.004
373.422
260.181
250.811
234.74
217.692
206.528
199.372
201.676
216.38
229.289
244.552
269.481
294.086
313.32
327.721
338.893
347.833
355.206
360.851
364.363
365.639
239.394
227.26
207.353
185.297
170.908
161.999
168.124
188.457
203.534
222.887
253.32
281.43
302.467
318.254
330.561
340.022
347.637
353.482
357.052
358.627
220.05
206.268
183.85
159.195
142.732
133.172
142.901
165.969
181.723
205.578
241.01
271.635
293.843
310.758
324.022
333.748
341.603
347.677
351.375
352.964
207.87
193.531
169.326
144.117
126.992
118.724
130.268
152.043
168.652
196.677
233.541
264.873
288.003
306.072
319.67
329.242
337.083
342.985
346.745
348.428
206.662
191.954
167.456
142.464
125.521
118.982
130.72
149.219
167.164
196.931
232.052
262.72
286.084
304.038
317.16
326.569
334.207
340.038
343.619
345.355
217.472
202.747
178.39
154.148
137.711
132.639
141.733
157.026
176.364
205.611
238.539
266.648
288.726
305.088
317.152
326.015
333.137
338.409
341.767
343.315
239.396
224.643
200.413
176.855
161.415
156.416
162.341
174.882
194.129
223.302
252.643
277.252
295.808
309.62
319.812
327.5
333.566
338.015
340.979
342.487
270.425
255.284
230.785
207.55
191.961
186.625
190.15
201.252
221.158
247.958
271.99
291.831
305.75
316.423
324.474
330.655
335.361
338.948
341.385
342.39
306.851
290.959
266.906
243.964
228.396
222.259
224.4
234.699
254.28
275.542
294.16
307.476
317.454
325.061
330.766
334.837
337.929
340.382
342.027
342.939
343.065
327.717
305.384
284.459
269.54
262.95
264.539
273.2
289.075
303.522
315.774
323.588
329.889
334.669
337.737
339.675
341.487
342.729
343.471
343.86
374.395
359.722
339.865
322.653
310.054
303.76
304.788
310.919
320.847
329.637
335.36
339.277
342.132
344.128
344.686
345.102
345.469
345.073
344.779
344.882
396.644
382.966
365.477
351.258
342.462
337.852
338.705
342.649
346.507
350.92
352.621
353.253
353.246
352.847
351.614
350.446
349.131
347.576
346.458
346.249
407.234
395.547
380.741
368.498
363.068
360.874
361.856
365.241
365.316
366.552
366.652
364.609
362.587
360.232
357.649
355.336
352.81
350.34
348.383
347.635
405.258
395.137
385.843
377.444
374.353
374.142
375.168
378.754
378.346
377.818
377.317
373.946
370.378
366.775
363.211
359.552
355.755
352.592
350.271
349.583
394.764
386.136
383.827
380.957
379.473
380.979
382.82
386.341
386.937
386.132
384.726
381.138
376.679
371.988
367.406
363.137
358.675
355.288
352.744
351.542
384.471
378.836
380.112
381.531
380.397
382.969
386.449
390.504
392.362
392.159
389.716
385.749
380.8
375.71
370.716
365.729
361.041
357.169
354.394
353.568
382.799
379.137
379.382
381.149
378.737
381.741
386.775
392.134
395.274
395.797
393.2
388.185
383.149
377.461
372.1
366.938
362.163
358.483
356.01
355.095
383.63
381.064
380.819
379.913
375.903
379.094
385.214
391.812
395.862
396.912
394.38
388.725
383.431
377.225
371.67
366.747
362.468
359.005
356.754
356.11
381.782
379.971
381.482
378.665
375.319
377.284
382.386
388.638
393.114
394.629
392.538
386.737
381.461
375.362
369.718
364.887
360.849
357.952
356.245
355.868
380.457
379.3
381.269
378.523
374.005
372.858
375.047
379.42
383.899
386.214
385.499
381.161
376.225
370.54
365.445
361.349
358.085
355.885
354.476
354.42
379.63
379.987
378.937
373.83
365.947
360.1
357.743
359.336
363.384
367.373
369.517
368.603
366.236
362.451
358.605
355.644
353.353
351.815
351.434
351.587
380.99
378.356
371.37
359.7
346.833
335.592
329.076
328.639
332.192
337.3
343.128
347.257
349.249
349.244
348.173
347.017
346.272
345.945
345.831
346.287
382.649
372.804
355.211
335.32
317.375
303.875
295.955
294.117
296.466
301.823
309.727
318.526
326.042
330.988
333.929
335.794
336.637
337.415
338.241
339.522
372.028
355.847
330.656
306.91
287.45
273.138
264.763
261.4
261.665
266.139
274.959
286.538
298.652
308.85
316.117
320.938
324.429
327.29
329.769
330.966
343.866
327.379
301.765
278.611
260.092
246.593
237.998
232.984
231.299
234.151
241.906
254.093
269.653
284.585
296.455
304.977
310.872
314.842
317.722
319.661
309.891
294.99
272.403
252.301
236.398
224.089
215.385
208.91
205.599
206.829
213.085
224.615
241.629
259.943
275.286
286.556
294.608
300.872
305.079
308.078
275.267
262.765
244.309
228.041
214.804
203.849
194.405
187.069
183.016
183.1
187.972
198.994
216.541
236.371
254.048
268.472
279.564
287.903
293.827
296.252
242.581
232.625
218.145
204.996
193.468
182.599
172.576
164.954
161.112
161.537
166.076
176.537
194.034
215.139
235.088
251.726
264.469
273.093
278.911
282.887
213.208
205.258
193.86
182.652
171.367
159.807
149.161
141.747
138.74
140.343
145.886
156.782
174.449
195.943
216.853
235.049
249.596
261.018
268.638
273.293
187.708
181.054
171.425
161.012
148.965
135.755
124.471
117.643
116.45
119.907
126.714
138.452
156.708
179.442
202.306
222.8
239.484
251.768
260.671
264.43
166.342
160.486
151.511
140.615
127.416
112.575
101.005
94.7512
95.2649
101.079
109.554
122.585
141.992
165.777
189.901
211.552
229.027
241.993
250.869
258.089
149.395
143.656
134.961
123.452
108.346
92.4471
80.7071
75.6912
77.9147
85.775
95.9807
110.092
130.291
155.158
180.058
203.046
223.465
239.801
252.047
257.601
137.282
131.541
122.558
110.304
94.1471
77.408
65.9073
61.6787
65.2784
74.8238
86.7848
102.134
123.096
149.065
175.368
199.948
221.252
237.939
250.526
257.965
130.721
124.869
115.645
102.904
85.7695
68.9031
58.4718
54.9433
59.1003
69.8467
82.5868
99.0665
120.54
145.867
171.633
196.335
219.332
239.36
255.45
266.807
129.712
123.007
114.157
102.787
84.1936
67.4428
57.7553
55.0972
59.8017
70.3615
83.6896
100.447
121.612
146.393
172.629
198.793
224.237
248.274
269.08
278.23
133.334
127.05
118.54
106.482
89.4762
73.7461
64.7946
62.233
66.7094
76.7165
89.8038
106.446
127.2
151.126
176.389
201.923
227.268
250.787
272.028
293.267
142.677
136.931
128.691
116.592
100.274
85.6648
77.5975
75.2621
79.3452
88.4521
100.585
115.795
134.714
156.754
180.164
204.218
229.642
258.3
289.738
313.133
156.595
151.445
143.415
132.31
116.973
103.183
95.1055
92.6285
96.0084
103.941
114.391
127.649
144.556
164.72
186.76
210.16
234.763
261.985
294.961
316.871
173.132
169.125
162.392
151.682
138.158
125.387
117.492
114.307
116.207
122.115
130.56
141.2
154.709
171.289
190.628
211.908
230.866
244.841
257.569
292.813
193.593
189.912
184.043
174.61
161.977
150.064
142.255
138.494
139.009
142.716
148.089
155.105
164.591
176.317
189.869
205.489
222.153
235.247
236.631
246.714
215.605
212.584
207.137
199.158
187.947
176.904
169.2
164.707
163.361
164.374
166.862
170.411
174.908
180.044
186.523
195.577
207.73
227.047
251.881
225.815
238.347
236.043
232.141
225.143
215.488
205.409
197.531
192.08
188.895
187.315
186.449
185.792
185.526
185.512
185.788
187.579
192.161
202.766
235.591
219.478
262.315
260.628
257.425
251.817
243.159
233.561
225.291
219.039
214.295
210.345
206.63
202.793
198.419
193.04
187.854
183.708
180.688
180.036
189.533
198.912
283.928
283.073
280.965
276.847
269.741
261.004
252.564
245.33
238.92
232.913
226.768
219.661
211.167
200.758
188.514
175.177
165.074
163.968
163.593
179.114
304.194
303.658
302.863
300.182
294.699
287.004
278.615
270.75
262.812
254.442
245.479
235.388
223.027
207.044
187.175
165.106
147.078
148.65
153.014
163.936
322.867
322.983
322.86
321.453
317.427
310.781
302.71
294.371
285.494
275.553
264.13
250.884
234.519
214.559
189.612
161.205
136.906
136.58
147.72
155.757
338.935
339.39
340.118
339.988
337.617
332.497
325.045
316.505
306.956
295.877
282.405
266.8
247.515
224.337
196.157
165.661
141.55
136.719
153.724
157.582
352.707
353.555
354.788
355.708
354.591
350.972
344.709
336.392
326.352
314.674
300.386
282.894
261.194
235.409
206.812
177.212
156.157
150.984
161.502
166.507
364.119
365.113
366.789
368.7
368.373
365.903
360.862
353.48
343.851
331.667
316.644
298.171
275.93
248.763
218.972
191.251
175.369
170.363
177.779
181.675
373.414
374.441
376.267
378.741
378.931
377.423
373.542
366.98
357.871
345.584
330.606
311.607
288.843
261.786
233.568
208.801
195.447
192.642
196.213
198.464
380.658
381.636
383.508
386.098
386.559
385.571
382.411
376.507
368.195
356.522
341.278
322.225
299.677
274.898
249.819
227.219
214.404
211.345
209.927
214.65
386.255
387.015
388.793
391.023
391.966
391.059
388.334
383.091
375.054
363.863
349.264
331.346
309.109
285.796
264.373
245.795
233.532
232.69
235.588
235.643
390.541
390.992
392.481
394.162
395.603
394.783
392.098
387.076
379.45
369.151
354.286
337.144
317.557
296.51
275.798
259.906
250.419
248.109
246.077
242.499
393.829
394.003
395.254
396.241
398.164
397.325
394.481
389.483
381.854
371.558
358.172
342.115
323.575
303.861
285.277
271.746
261.387
254.751
252.015
252.499
396.455
396.538
397.606
398.274
400.278
399.521
396.232
390.771
383.287
373.438
360.669
345.369
328.364
310.848
292.607
279.037
269.604
265.329
265.798
265.917
398.433
398.599
399.43
400.36
402.099
401.512
397.869
392.259
384.477
374.599
362.794
348.795
332.247
315.559
298.995
284.742
274.611
266.904
260.146
251.809
399.672
399.876
400.356
401.752
402.778
402.606
399.278
393.302
385.572
376.249
364.709
351.427
336.257
320.004
302.915
287.145
274.121
260.564
245.437
256.249
400.159
400.414
400.973
402.871
402.615
402.811
399.747
394.285
386.765
377.711
367.131
354.544
339.622
323.743
306.98
288.386
271.295
258.258
247.84
243.76
400.112
400.449
401.489
402.694
402.579
402.345
399.544
394.599
388.011
379.649
369.258
357.76
344.027
327.708
310.33
290.989
269.868
250.687
228.669
213.732
399.83
400.138
401.233
401.54
402.106
400.33
398.129
394.752
389.313
382.083
372.825
361.524
348.505
332.659
314.212
294.045
269.376
240.457
199.493
136.904
399.495
399.692
400.096
400.327
399.961
397.992
396.574
394.292
390.753
384.978
377.048
366.807
353.852
338.027
318.923
296.848
266.737
225.445
173.104
50.1037
399.089
398.917
398.529
398.506
397.637
396.824
395.715
394.511
392.548
388.605
382.047
372.388
360.181
344.681
324.856
300.919
271.294
219.9
159.887
62.4208
398.361
397.706
396.896
396.169
395.488
395.472
395.423
394.737
394.469
392.81
388.067
380.085
367.461
351.882
333.216
306.628
279.321
233.12
173.133
110.433
397.502
396.517
395.404
394.063
393.961
394.572
395.08
395.635
396.488
396.905
394.548
387.203
376.162
359.604
343.933
318.518
289.957
254.845
208.131
163.38
396.926
395.91
394.524
392.739
392.656
393.566
394.884
395.331
396.638
400.409
405.452
393.368
386.364
367.785
353.179
334.261
306.939
277.95
240.276
203.241
397.138
396.06
394.803
393.564
393.598
394.862
395.583
396.724
399.19
400.292
413.331
394.551
396.064
374.706
363.368
350.414
326.911
300.286
265.914
230.879
398.309
396.968
395.275
393.621
393.121
394.015
394.037
395.879
399.082
404.672
420.883
396.524
391.373
373.897
373.905
362.151
339.685
316.506
285.295
250.659
400.478
398.995
397.016
395.121
395.01
396.615
396.938
398.953
399.006
397.365
378.805
388.514
382.23
392.326
390.74
371.953
348.553
326.928
298.784
265.593
402.383
400.552
398.126
395.36
394.661
396.26
397.514
398.139
399.198
399.599
366.684
409.727
403.729
404.079
396.602
377.523
354.335
332.008
306.624
275.834
406.003
403.9
400.84
397.756
397.337
399.126
402.154
405.919
402.679
427.566
412.73
432.676
406.204
404.858
396.437
378.886
355.812
333.018
309.545
280.669
-113.821
-98.4597
-117.648
-61.9799
-124.894
-85.801
-75.2414
-52.9952
-27.5844
-18.7125
-17.5185
-24.8284
-29.7941
-33.2129
-39.2569
-52.2795
-74.9155
-107.518
-146.88
-188.582
-228.688
-262.919
-287.314
-299.955
-300.436
-289.541
-268.205
-240.773
-209.295
-175.136
-140.921
-108.159
-77.7775
-51.278
-25.658
-2.39458
17.0561
35.569
52.0562
65.5562
76.1886
84.2474
89.7094
92.6951
93.533
92.6192
90.3992
87.3468
83.7954
80.1388
76.7478
73.843
71.7937
70.627
70.4146
70.9222
71.8831
72.9617
73.8754
74.7997
75.8677
76.7247
76.9853
76.5248
75.5155
74.0731
72.1978
69.7666
66.5867
62.6233
58.122
54.1376
49.9257
46.2208
42.0361
37.0933
31.3211
24.1912
15.7957
5.79201
-74.8041
-126.243
-66.1406
-71.2665
-141.038
-119.952
-95.6011