/*--------------------------------*- C++ -*----------------------------------*\
| =========                 |                                                 |
| \\      /  F ield         | OpenFOAM: The Open Source CFD Toolbox           |
|  \\    /   O peration     | Version:  2306                                  |
|   \\  /    A nd           | Website:  www.openfoam.com                      |
|    \\/     M anipulation  |                                                 |
\*---------------------------------------------------------------------------*/
FoamFile
{
    version     2.0;
    format      ascii;
    arch        "LSB;label=32;scalar=64";
    class       surfaceScalarField;
    location    "0.225";
    object      phi;
}
// * * * * * * * * * * * * * * * * * * * * * * * * * * * * * * * * * * * * * //

dimensions      [0 3 -1 0 0 0 0];

oriented        oriented;

internalField   nonuniform List<scalar> 
8520
(
0.00992782
7.21788e-05
0.00978959
0.000138227
0.00962948
0.000160116
0.00946824
0.000161239
0.00930941
0.000158824
0.00914913
0.000160284
0.00898634
0.000162794
0.00882094
0.000165397
0.00865366
0.000167276
0.00848561
0.000168051
0.00831786
0.000167753
0.00815108
0.000166783
0.00798554
0.00016554
0.00782134
0.000164195
0.0076585
0.000162842
0.0074971
0.000161402
0.00733717
0.000159929
0.00717883
0.000158336
0.00702218
0.000156655
0.00686729
0.000154886
0.00671429
0.000153005
0.0065632
0.000151089
0.00641415
0.000149048
0.00626714
0.00014701
0.00612228
0.00014486
0.00597954
0.000142739
0.00583901
0.000140535
0.00570069
0.000138316
0.00556455
0.000136143
0.0054307
0.000133845
0.00529897
0.000131736
0.00516955
0.000129413
0.00504203
0.000127522
0.00491674
0.000125292
0.00479307
0.000123666
0.00467142
0.000121655
0.00455104
0.00012038
0.00443227
0.000118769
0.0043143
0.000117968
0.00419732
0.000116976
0.00408055
0.000116777
0.00396397
0.000116582
0.00384685
0.000117118
0.00372891
0.000117937
0.00360944
0.000119472
0.0034879
0.00012154
0.00336351
0.00012439
0.00323557
0.000127937
0.00310315
0.000132421
0.00296541
0.000137738
0.00282133
0.000144084
0.0026698
0.000151526
0.00250995
0.000159857
0.0023402
0.000169742
0.00216018
0.000180021
0.00196774
0.000192445
0.00176339
0.000204349
0.00154447
0.000218924
0.00131285
0.000231615
0.00106577
0.000247078
0.000807036
0.000258736
0.000534762
0.000272274
0.000257127
0.000277635
-1.64832e-05
0.00027361
-0.00026341
0.000246927
-0.000476405
0.000212995
-0.000626308
0.000149902
-0.000701066
7.47584e-05
-0.00067203
-2.90359e-05
-0.000542051
-0.000129979
-0.000296474
-0.000245578
-9.00821e-06
-0.000287465
0.000243444
-0.000252452
0.000338562
-9.51184e-05
-6.34765e-05
0.000402039
-0.000549754
0.000486277
-0.000349596
-0.000200158
-1.63836e-05
-0.000333213
1.01479e-05
-2.65315e-05
7.55199e-05
-6.53719e-05
0.0100356
3.65334e-05
0.0100798
9.4044e-05
0.0101108
0.000129189
0.0101272
0.00014478
0.0101357
0.000150341
0.0101431
0.000152902
0.0101493
0.000156585
0.0101532
0.000161496
0.0101536
0.000166859
0.0101502
0.000171441
0.010143
0.000174998
0.0101324
0.000177376
0.0101188
0.000179108
0.0101028
0.000180223
0.0100843
0.000181287
0.0100637
0.000182
0.0100409
0.000182797
0.0100159
0.000183305
0.00998882
0.00018374
0.00995967
0.000184035
0.0099286
0.000184076
0.00989554
0.000184144
0.00986074
0.000183848
0.00982404
0.000183716
0.00978572
0.000183178
0.00974556
0.000182899
0.00970387
0.00018222
0.00966043
0.000181764
0.00961546
0.000181106
0.00956884
0.000180467
0.0095206
0.000179977
0.00947076
0.000179249
0.00941924
0.000179043
0.00936611
0.000178429
0.00931115
0.000178627
0.00925447
0.000178331
0.00919579
0.000179064
0.00913516
0.000179391
0.00907233
0.000180802
0.00900711
0.000182197
0.00893933
0.000184555
0.00886856
0.000187358
0.00879493
0.000190746
0.00871747
0.000195399
0.00863659
0.000200346
0.00855092
0.000207214
0.00846093
0.000214382
0.00836512
0.000223748
0.00826355
0.000233983
0.00815511
0.000246178
0.00803897
0.000260231
0.0079147
0.000275797
0.00778033
0.000294226
0.00763628
0.000313792
0.00747938
0.000336921
0.00731088
0.000360947
0.00712657
0.000388658
0.00692842
0.000417069
0.00671156
0.000448475
0.00647904
0.000479599
0.00622562
0.000512156
0.00595689
0.000541003
0.00566658
0.000567943
0.00535762
0.000582577
0.00502488
0.000579669
0.00466793
0.000569942
0.00426406
0.000553773
0.00381455
0.000524263
0.00328302
0.0005025
0.0026628
0.000490239
0.00188908
0.00052814
0.00101694
0.000584676
0.000161796
0.00060269
-0.000390472
0.00045715
-0.000473734
0.000485301
-0.000300376
0.000312919
-0.000406737
-9.37962e-05
-0.000530192
-0.000209758
-0.000469574
-8.71498e-05
-8.41599e-05
-0.000309894
0.0100141
2.24392e-05
0.0100441
6.40778e-05
0.0100777
9.555e-05
0.0101074
0.000115127
0.0101313
0.000126426
0.0101522
0.000131939
0.0101729
0.000135867
0.010195
0.000139414
0.0102178
0.000144048
0.0102408
0.000148438
0.010263
0.000152829
0.0102843
0.000156078
0.0103044
0.000159056
0.0103237
0.000160836
0.0103422
0.000162881
0.0103603
0.000163904
0.0103774
0.00016567
0.0103943
0.000166421
0.01041
0.000168001
0.0104254
0.000168647
0.0104395
0.000169924
0.0104532
0.000170518
0.0104656
0.000171399
0.0104773
0.00017206
0.0104879
0.000172563
0.0104974
0.000173375
0.010506
0.000173612
0.0105133
0.0001745
0.0105196
0.00017476
0.0105245
0.000175592
0.0105283
0.000176185
0.0105306
0.000176935
0.0105316
0.000178065
0.0105311
0.000178884
0.010529
0.000180735
0.0105255
0.000181832
0.01052
0.000184591
0.0105131
0.00018631
0.0105037
0.00019015
0.0104929
0.000192982
0.0104794
0.000198087
0.0104643
0.000202438
0.0104459
0.000209182
0.0104259
0.000215408
0.0104017
0.000224526
0.0103761
0.000232853
0.010345
0.000245428
0.0103129
0.000255885
0.0102736
0.000273294
0.0102337
0.000286009
0.0101846
0.000309383
0.0101353
0.000325067
0.0100746
0.000354961
0.0100136
0.0003748
0.00993914
0.000411353
0.00986365
0.000436435
0.00977296
0.000479354
0.00967979
0.000510242
0.00956999
0.000558272
0.00945551
0.000594076
0.00932344
0.000644226
0.00918301
0.000681434
0.00902332
0.000727638
0.00884669
0.000759204
0.00863514
0.000791221
0.00838977
0.000815315
0.00809988
0.000843663
0.00775951
0.000864627
0.00736397
0.000898043
0.00691655
0.000937656
0.00643435
0.00101034
0.0059408
0.00107823
0.00537301
0.00117048
0.00463842
0.00119174
0.00391406
0.00120966
0.00307224
0.00115474
0.00194824
0.0010302
0.00072535
0.00101313
-3.38531e-05
0.000672053
0.000226097
-0.00034411
0.0100069
1.54978e-05
0.0100268
4.42641e-05
0.0100519
7.04498e-05
0.010077
8.99939e-05
0.0101003
0.000103133
0.0101223
0.000109923
0.0101431
0.000115096
0.0101642
0.000118234
0.0101863
0.00012201
0.0102095
0.000125195
0.0102331
0.000129257
0.010257
0.000132223
0.0102804
0.00013559
0.0103039
0.000137395
0.0103269
0.000139873
0.0103501
0.00014071
0.0103729
0.00014285
0.0103961
0.000143195
0.0104188
0.000145312
0.010442
0.000145488
0.0104644
0.000147522
0.0104872
0.000147661
0.0105092
0.00014946
0.0105315
0.000149723
0.0105528
0.000151258
0.0105744
0.000151742
0.010595
0.000153092
0.0106157
0.00015375
0.0106352
0.000155269
0.0106549
0.000155849
0.010673
0.000158075
0.0106917
0.000158253
0.0107081
0.000161717
0.0107256
0.000161393
0.0107399
0.000166409
0.0107559
0.00016582
0.0107681
0.000172434
0.0107822
0.000172172
0.0107921
0.000180298
0.0108039
0.00018111
0.0108114
0.000190596
0.0108205
0.000193323
0.0108256
0.000204119
0.0108313
0.000209704
0.0108339
0.000221933
0.0108356
0.00023119
0.0108355
0.000245467
0.0108326
0.000258751
0.0108295
0.000276477
0.0108219
0.000293532
0.0108146
0.00031668
0.0108025
0.000337199
0.0107901
0.000367394
0.010773
0.000391865
0.0107548
0.000429608
0.0107319
0.000459275
0.0107072
0.000504053
0.0106775
0.000539943
0.0106453
0.00059051
0.0106068
0.000632591
0.0105644
0.000686619
0.0105124
0.000733447
0.010452
0.000787963
0.0103743
0.000836893
0.0102744
0.000891131
0.0101486
0.000941186
0.00999494
0.000997291
0.00980594
0.00105363
0.00958241
0.00112158
0.00932331
0.00119675
0.00904374
0.00128991
0.00872594
0.00139603
0.00838001
0.00151642
0.00793392
0.00163783
0.00744813
0.00169545
0.00683686
0.001766
0.0061756
0.00169147
0.00549198
0.00169675
0.00453829
0.00162574
0.00148764
0.00327675
0.0100044
1.11364e-05
0.0100166
3.20307e-05
0.010035
5.20271e-05
0.0100563
6.87308e-05
0.010078
8.13981e-05
0.0100989
8.90425e-05
0.0101192
9.47828e-05
0.0101397
9.77901e-05
0.0101606
0.000101053
0.0101825
0.000103295
0.010205
0.000106741
0.0102281
0.000109173
0.0102514
0.000112265
0.0102747
0.000114098
0.0102981
0.000116498
0.0103213
0.00011749
0.0103447
0.000119473
0.010368
0.000119828
0.0103914
0.000121901
0.0104151
0.000121878
0.0104384
0.000124216
0.0104621
0.000123877
0.0104851
0.000126487
0.0105089
0.0001259
0.0105314
0.000128818
0.0105551
0.000128015
0.0105769
0.000131273
0.0106003
0.000130365
0.0106215
0.000134091
0.0106442
0.000133124
0.0106647
0.000137557
0.0106865
0.000136452
0.0107063
0.000142003
0.010727
0.000140689
0.0107457
0.000147688
0.0107651
0.000146408
0.0107827
0.000154801
0.0108005
0.000154375
0.0108171
0.00016368
0.0108329
0.000165326
0.0108487
0.000174851
0.0108619
0.000180039
0.010877
0.000189061
0.0108873
0.000199417
0.0109019
0.00020737
0.0109088
0.000224227
0.0109229
0.000231363
0.0109265
0.000255171
0.01094
0.000262943
0.0109405
0.0002931
0.010953
0.000304131
0.0109512
0.000339035
0.0109617
0.000356885
0.0109592
0.00039436
0.0109664
0.000422386
0.0109646
0.000461084
0.010968
0.000500688
0.0109672
0.000540694
0.0109661
0.000591673
0.0109658
0.000632859
0.0109575
0.000694906
0.0109538
0.000737179
0.0109325
0.000809247
0.0109152
0.000854135
0.0108722
0.000934197
0.0108293
0.000984078
0.0107545
0.00107213
0.0106728
0.00113532
0.0105588
0.00123554
0.0104308
0.00132471
0.0102787
0.00144204
0.0101035
0.00157124
0.00991147
0.00170844
0.00969087
0.00185843
0.00941115
0.00197518
0.00908251
0.00209465
0.0086212
0.00215277
0.00807516
0.00224279
0.00739234
0.00230856
0.00229772
0.00658227
0.010003
8.15425e-06
0.0100118
2.31889e-05
0.0100255
3.83074e-05
0.0100431
5.11384e-05
0.0100624
6.21101e-05
0.0100824
6.90707e-05
0.0101023
7.48627e-05
0.0101224
7.76877e-05
0.0101427
8.08142e-05
0.0101636
8.23362e-05
0.0101853
8.5026e-05
0.0102076
8.68807e-05
0.0102304
8.94746e-05
0.0102533
9.12144e-05
0.0102765
9.33274e-05
0.0102995
9.44201e-05
0.0103228
9.62259e-05
0.010346
9.65759e-05
0.0103693
9.86127e-05
0.0103928
9.8407e-05
0.0104161
0.000100893
0.0104397
0.000100318
0.0104629
0.000103225
0.0104864
0.000102485
0.0105095
0.000105702
0.0105325
0.000104945
0.0105555
0.000108334
0.0105779
0.000107901
0.0106007
0.000111305
0.0106223
0.000111576
0.0106449
0.000114894
0.0106653
0.00011607
0.0106877
0.000119584
0.0107069
0.000121563
0.0107288
0.000125787
0.0107467
0.000128491
0.0107677
0.00013374
0.0107845
0.000137601
0.0108045
0.000143738
0.0108202
0.000149586
0.0108386
0.000156406
0.0108536
0.00016508
0.0108702
0.000172516
0.0108845
0.000185081
0.0108991
0.000192721
0.0109126
0.00021076
0.0109258
0.000218182
0.0109381
0.000242856
0.0109502
0.000250845
0.0109614
0.000281894
0.0109728
0.000292733
0.0109829
0.00032889
0.0109943
0.000345556
0.0110037
0.000384973
0.011015
0.000411035
0.0110249
0.000451155
0.0110356
0.00049001
0.0110469
0.000529401
0.0110569
0.000581636
0.0110677
0.000622081
0.0110766
0.000686026
0.0110831
0.000730647
0.0110875
0.000804902
0.0110854
0.000856239
0.0110803
0.000939243
0.0110624
0.00100199
0.0110403
0.00109422
0.0109999
0.00117576
0.0109538
0.00128166
0.0108893
0.00138914
0.0108141
0.00151724
0.0107314
0.001654
0.0106311
0.00180874
0.0105239
0.00196563
0.0103697
0.00212932
0.0101778
0.00228655
0.00989007
0.00244053
0.00955303
0.00257983
0.00914993
0.00271166
0.00279876
0.00864888
0.0100022
5.93884e-06
0.0100094
1.60372e-05
0.0100203
2.73969e-05
0.0100353
3.61163e-05
0.0100523
4.51448e-05
0.0100711
5.02496e-05
0.0100902
5.57672e-05
0.0101102
5.76914e-05
0.0101299
6.10516e-05
0.0101507
6.15379e-05
0.0101715
6.42158e-05
0.0101936
6.48007e-05
0.0102156
6.75527e-05
0.0102384
6.83583e-05
0.010261
7.07488e-05
0.0102842
7.12058e-05
0.0103071
7.33084e-05
0.0103304
7.32541e-05
0.0103536
7.54723e-05
0.0103769
7.50593e-05
0.0104003
7.7495e-05
0.0104235
7.71054e-05
0.0104472
7.96062e-05
0.01047
7.96555e-05
0.0104938
8.18855e-05
0.010516
8.2702e-05
0.01054
8.43737e-05
0.0105615
8.6427e-05
0.0105855
8.72926e-05
0.0106061
9.0993e-05
0.01063
9.09823e-05
0.0106496
9.64175e-05
0.0106732
9.60694e-05
0.010692
0.000102674
0.0107146
0.000103228
0.0107332
0.0001099
0.010754
0.000112897
0.0107729
0.000118748
0.0107914
0.000125237
0.0108108
0.000130141
0.0108267
0.000140582
0.0108469
0.00014487
0.0108598
0.000159623
0.010881
0.000163886
0.0108909
0.000182776
0.0109129
0.000188794
0.0109207
0.000210353
0.0109424
0.00022114
0.0109498
0.00024349
0.01097
0.000261692
0.0109785
0.000284188
0.0109964
0.000311048
0.0110077
0.000334252
0.0110222
0.000370437
0.0110383
0.000394912
0.0110484
0.000441088
0.0110705
0.000467859
0.0110764
0.000523553
0.0111031
0.00055497
0.0111057
0.000619453
0.0111341
0.000657652
0.0111331
0.000731558
0.0111601
0.000777945
0.011155
0.000861342
0.0111743
0.000919912
0.0111638
0.00101256
0.0111675
0.00109044
0.0111498
0.00119347
0.0111327
0.00129878
0.011105
0.00141687
0.0110686
0.00155366
0.0110292
0.00169338
0.0109766
0.00186127
0.0109177
0.00202456
0.0108273
0.00221977
0.010715
0.00239878
0.0105541
0.00260146
0.0103503
0.00278366
0.0100933
0.00296868
0.00316014
0.00973188
0.0100019
4.06204e-06
0.0100079
9.97692e-06
0.0100174
1.79632e-05
0.0100305
2.29454e-05
0.0100459
2.97734e-05
0.0100635
3.26355e-05
0.0100819
3.73856e-05
0.0101016
3.80242e-05
0.0101212
4.14663e-05
0.0101419
4.08393e-05
0.0101623
4.37694e-05
0.010184
4.30713e-05
0.0102056
4.60296e-05
0.0102281
4.57844e-05
0.0102505
4.83493e-05
0.0102736
4.81868e-05
0.0102965
5.03345e-05
0.0103196
5.01354e-05
0.010343
5.21555e-05
0.0103661
5.19564e-05
0.0103897
5.3903e-05
0.0104127
5.41009e-05
0.0104364
5.58623e-05
0.0104592
5.68256e-05
0.010483
5.81424e-05
0.0105056
6.00791e-05
0.0105291
6.08295e-05
0.0105515
6.40859e-05
0.0105747
6.40783e-05
0.0105966
6.90542e-05
0.0106194
6.81797e-05
0.0106408
7.50198e-05
0.0106631
7.38295e-05
0.010684
8.1793e-05
0.0107053
8.18751e-05
0.0107259
8.92849e-05
0.0107459
9.29556e-05
0.0107666
9.79825e-05
0.0107846
0.000107234
0.0108059
0.000108888
0.0108217
0.000124781
0.0108435
0.000123041
0.0108571
0.000146011
0.0108795
0.000141521
0.0108912
0.000171078
0.0109138
0.000166209
0.0109244
0.000199712
0.0109464
0.000199171
0.0109575
0.000232418
0.0109777
0.000241463
0.010991
0.000270913
0.0110084
0.000293632
0.0110255
0.000317096
0.0110396
0.000356372
0.0110615
0.000373006
0.0110726
0.000429994
0.0110989
0.000441559
0.0111082
0.000514303
0.0111368
0.000526301
0.0111462
0.000610057
0.0111739
0.000629983
0.0111851
0.000720388
0.0112091
0.000753936
0.0112203
0.000850065
0.0112387
0.000901585
0.0112459
0.00100531
0.011257
0.0010794
0.0112557
0.00119476
0.0112576
0.00129681
0.0112465
0.00142799
0.0112364
0.0015638
0.0112144
0.00171533
0.0111901
0.00188557
0.0111478
0.00206685
0.0111009
0.0022667
0.0110229
0.00247684
0.0109311
0.00269321
0.0107915
0.00292325
0.010615
0.0031452
0.00340326
0.0103719
0.0100018
2.3104e-06
0.0100071
4.63265e-06
0.0100159
9.18916e-06
0.0100277
1.1115e-05
0.0100423
1.51546e-05
0.0100588
1.61371e-05
0.010077
1.92211e-05
0.010096
1.90311e-05
0.0101158
2.16243e-05
0.0101361
2.05722e-05
0.0101568
2.30921e-05
0.010178
2.18663e-05
0.0101995
2.44739e-05
0.0102217
2.36526e-05
0.0102441
2.58565e-05
0.0102669
2.54603e-05
0.01029
2.72079e-05
0.010313
2.71669e-05
0.0103364
2.86959e-05
0.0103595
2.8891e-05
0.0103832
3.02368e-05
0.0104062
3.10687e-05
0.01043
3.20711e-05
0.0104529
3.38673e-05
0.0104767
3.44146e-05
0.0104997
3.70941e-05
0.0105229
3.75507e-05
0.0105461
4.09227e-05
0.0105686
4.15663e-05
0.0105919
4.57153e-05
0.0106136
4.64925e-05
0.0106369
5.17639e-05
0.0106579
5.28696e-05
0.0106807
5.88935e-05
0.010701
6.16194e-05
0.0107235
6.67792e-05
0.0107429
7.35971e-05
0.0107651
7.57606e-05
0.0107834
8.8911e-05
0.0108053
8.7036e-05
0.0108228
0.000107241
0.0108439
0.000101918
0.0108611
0.000128855
0.0108814
0.000121188
0.0108982
0.000154346
0.0109181
0.000146298
0.0109346
0.000183209
0.0109538
0.000179979
0.0109712
0.000214979
0.0109891
0.000223517
0.011008
0.000252025
0.0110259
0.000275788
0.011045
0.000297933
0.0110648
0.000336576
0.0110836
0.000354278
0.0111058
0.000407729
0.0111247
0.000422661
0.011149
0.000490048
0.0111685
0.000506771
0.0111942
0.000584343
0.0112146
0.000609592
0.0112407
0.000694313
0.0112618
0.000732868
0.0112861
0.000825721
0.0113065
0.000881146
0.0113275
0.00098437
0.0113445
0.00106235
0.0113598
0.00117951
0.0113732
0.00128339
0.0113771
0.00142413
0.0113868
0.0015541
0.011375
0.0017271
0.0113732
0.00188735
0.0113435
0.00209659
0.0113226
0.00228762
0.0112634
0.00253599
0.0112071
0.00274948
0.0110995
0.00303089
0.010969
0.00327566
0.0035694
0.0108029
0.0100017
6.06528e-07
0.0100068
-4.2531e-07
0.0100152
7.21133e-07
0.0100265
-1.06303e-07
0.0100407
8.7438e-07
0.0100567
2.00277e-07
0.0100747
1.15639e-06
0.0100934
3.85778e-07
0.0101133
1.69284e-06
0.0101334
4.62407e-07
0.0101542
2.35828e-06
0.0101752
7.99372e-07
0.0101967
2.98851e-06
0.0102187
1.63122e-06
0.0102412
3.38168e-06
0.0102638
2.82512e-06
0.0102871
3.97655e-06
0.01031
4.27309e-06
0.0103336
5.06161e-06
0.0103567
5.80805e-06
0.0103804
6.48906e-06
0.0104036
7.88087e-06
0.0104274
8.25623e-06
0.0104506
1.07146e-05
0.0104745
1.05332e-05
0.0104975
1.40448e-05
0.0105212
1.38964e-05
0.0105443
1.77698e-05
0.0105673
1.86275e-05
0.0105908
2.21735e-05
0.0106127
2.46374e-05
0.0106366
2.78039e-05
0.0106574
3.21068e-05
0.0106814
3.48454e-05
0.0107014
4.16508e-05
0.0107251
4.30515e-05
0.0107445
5.41702e-05
0.0107677
5.26424e-05
0.0107868
6.97447e-05
0.0108089
6.49761e-05
0.0108285
8.76405e-05
0.0108486
8.1783e-05
0.0108697
0.00010777
0.0108873
0.000103609
0.0109102
0.000131454
0.0109259
0.000130549
0.0109496
0.000159546
0.0109653
0.000164273
0.0109887
0.000191589
0.0110054
0.000206829
0.0110287
0.000228684
0.0110468
0.0002577
0.01107
0.000274769
0.011091
0.00031555
0.0111131
0.00033217
0.0111379
0.000382955
0.0111601
0.000400439
0.0111869
0.00046321
0.0112115
0.000482164
0.0112393
0.00055655
0.0112665
0.0005824
0.0112954
0.000665403
0.0113245
0.000703849
0.0113532
0.000796983
0.0113848
0.000849584
0.0114098
0.000959341
0.011444
0.00102819
0.0114649
0.00115859
0.0114953
0.00125293
0.0115144
0.00140509
0.0115358
0.00153272
0.0115462
0.00171669
0.0115562
0.00187734
0.0115515
0.00210128
0.0115361
0.00230297
0.0115158
0.00255634
0.011455
0.00281026
0.011395
0.00309088
0.0112768
0.00339389
0.00369973
0.0111464
0.0100017
-1.13402e-06
0.0100068
-5.51215e-06
0.0100153
-7.74361e-06
0.0100266
-1.14355e-05
0.0100408
-1.33304e-05
0.0100569
-1.58244e-05
0.0100748
-1.68412e-05
0.0100935
-1.82907e-05
0.0101135
-1.82723e-05
0.0101335
-1.95796e-05
0.0101544
-1.84748e-05
0.0101753
-2.01813e-05
0.010197
-1.86659e-05
0.010219
-2.03336e-05
0.0102416
-1.92752e-05
0.0102642
-1.97326e-05
0.0102877
-1.9516e-05
0.0103104
-1.84966e-05
0.0103344
-1.88996e-05
0.0103574
-1.7201e-05
0.0103813
-1.74334e-05
0.0104048
-1.55659e-05
0.0104284
-1.53399e-05
0.0104523
-1.31763e-05
0.0104756
-1.27853e-05
0.0104996
-9.97352e-06
0.0105228
-9.27567e-06
0.0105467
-6.12215e-06
0.0105696
-4.34738e-06
0.0105934
-1.60286e-06
0.010616
2.09722e-06
0.0106397
4.08565e-06
0.0106617
1.00756e-05
0.0106851
1.14802e-05
0.010707
1.97377e-05
0.0107295
2.05085e-05
0.0107516
3.2121e-05
0.0107731
3.10734e-05
0.0107954
4.75299e-05
0.0108159
4.44641e-05
0.0108386
6.48716e-05
0.0108576
6.28555e-05
0.0108816
8.37347e-05
0.0108987
8.65054e-05
0.010924
0.000106176
0.0109404
0.000114152
0.0109657
0.000134258
0.0109831
0.000146814
0.0110078
0.000166961
0.0110269
0.000187733
0.0110515
0.000204014
0.0110721
0.000237104
0.0110975
0.000249413
0.0111206
0.000292458
0.0111457
0.000307076
0.0111734
0.00035523
0.0111975
0.000376299
0.0112301
0.00043062
0.0112552
0.000457125
0.011291
0.000520668
0.0113185
0.000554897
0.0113576
0.000626378
0.0113869
0.000674506
0.0114301
0.000753749
0.0114595
0.000820231
0.0115079
0.000910963
0.0115361
0.000999949
0.0115867
0.00110795
0.0116153
0.0012244
0.0116643
0.00135602
0.0116864
0.00151064
0.0117371
0.00166602
0.01174
0.00187447
0.0117828
0.00205848
0.0117687
0.00231705
0.0117754
0.00254965
0.011738
0.00284761
0.0116874
0.0031415
0.0116101
0.00347117
0.00383251
0.0114774
0.0100018
-2.9218e-06
0.0100073
-1.09794e-05
0.010016
-1.64805e-05
0.0100279
-2.33587e-05
0.0100426
-2.80079e-05
0.010059
-3.22444e-05
0.0100774
-3.52359e-05
0.0100961
-3.70282e-05
0.0101164
-3.85317e-05
0.0101363
-3.95049e-05
0.0101574
-3.95299e-05
0.0101785
-4.12776e-05
0.0102002
-4.0411e-05
0.0102227
-4.27673e-05
0.0102451
-4.16799e-05
0.0102683
-4.29807e-05
0.0102913
-4.25348e-05
0.0103148
-4.19873e-05
0.0103384
-4.24692e-05
0.0103619
-4.07423e-05
0.0103857
-4.12068e-05
0.0104095
-3.94064e-05
0.0104331
-3.8868e-05
0.0104575
-3.76063e-05
0.0104805
-3.58093e-05
0.0105054
-3.48681e-05
0.0105281
-3.19515e-05
0.010553
-3.09993e-05
0.0105757
-2.70624e-05
0.0106001
-2.5985e-05
0.0106231
-2.08869e-05
0.0106466
-1.94938e-05
0.0106701
-1.33795e-05
0.0106926
-1.10395e-05
0.0107167
-4.3062e-06
0.010738
-7.87092e-07
0.0107625
7.55487e-06
0.010783
1.05807e-05
0.0108072
2.33325e-05
0.0108281
2.35731e-05
0.0108511
4.18524e-05
0.0108725
4.14618e-05
0.0108954
6.08445e-05
0.0109159
6.60478e-05
0.0109403
8.17836e-05
0.0109596
9.47708e-05
0.0109847
0.000109234
0.0110055
0.000125972
0.0110292
0.000143281
0.0110531
0.000163773
0.0110761
0.00018108
0.0111023
0.000210833
0.0111262
0.000225528
0.0111551
0.000263593
0.0111794
0.000282787
0.0112129
0.00032171
0.0112372
0.000351968
0.0112758
0.000392013
0.0113019
0.000431103
0.0113449
0.000477604
0.0113734
0.000526467
0.0114224
0.000577346
0.0114523
0.000644602
0.0115077
0.000698319
0.0115421
0.00078588
0.0116005
0.000852572
0.0116409
0.000959521
0.0117037
0.00104512
0.0117458
0.00118228
0.0118115
0.00129042
0.0118606
0.00146152
0.0119103
0.00161625
0.0119706
0.00181426
0.0119989
0.0020301
0.0120428
0.00227316
0.0120455
0.00254696
0.0120593
0.00283381
0.0120109
0.00318993
0.0119593
0.00352274
0.00393268
0.0118591
0.0100019
-4.83091e-06
0.010008
-1.71029e-05
0.0100175
-2.59712e-05
0.0100307
-3.65165e-05
0.0100463
-4.36128e-05
0.0100636
-4.95624e-05
0.0100826
-5.42442e-05
0.0101017
-5.60757e-05
0.0101222
-5.90456e-05
0.0101422
-5.94871e-05
0.0101635
-6.08582e-05
0.0101849
-6.26559e-05
0.0102069
-6.24348e-05
0.0102298
-6.57002e-05
0.0102521
-6.3981e-05
0.0102761
-6.69147e-05
0.0102986
-6.50899e-05
0.0103229
-6.62796e-05
0.010346
-6.55675e-05
0.0103701
-6.48386e-05
0.0103939
-6.50579e-05
0.0104177
-6.31198e-05
0.0104422
-6.33758e-05
0.0104657
-6.11139e-05
0.0104904
-6.04954e-05
0.010514
-5.85194e-05
0.0105384
-5.63333e-05
0.0105624
-5.49831e-05
0.0105864
-5.10404e-05
0.0106104
-5.00692e-05
0.0106343
-4.47546e-05
0.010658
-4.31526e-05
0.0106822
-3.76284e-05
0.0107049
-3.37051e-05
0.01073
-2.93869e-05
0.0107512
-2.20294e-05
0.0107772
-1.83949e-05
0.0107974
-9.69196e-06
0.0108234
-2.59e-06
0.010844
2.92672e-06
0.0108688
1.70562e-05
0.0108903
1.99599e-05
0.0109146
3.65433e-05
0.010936
4.46732e-05
0.0109614
5.63541e-05
0.0109819
7.42264e-05
0.0110086
8.26272e-05
0.0110303
0.00010418
0.0110559
0.000117733
0.0110814
0.000138295
0.0111059
0.000156549
0.0111338
0.00018291
0.0111611
0.000198239
0.011189
0.000235716
0.0112208
0.000250992
0.0112504
0.000292065
0.0112847
0.000317712
0.0113191
0.000357583
0.0113566
0.000393571
0.0113941
0.000440187
0.0114395
0.000481027
0.0114781
0.000538794
0.0115316
0.000591103
0.0115764
0.000653461
0.0116347
0.000727624
0.0116867
0.000800532
0.0117577
0.000888499
0.011807
0.000995815
0.011897
0.00109229
0.0119479
0.00123957
0.0120408
0.00136858
0.0121017
0.00155539
0.0121937
0.00172219
0.012243
0.00198086
0.0123258
0.00219036
0.0123591
0.00251365
0.0123868
0.00280606
0.0123969
0.00317992
0.012345
0.00357464
0.00399783
0.0122798
0.0100021
-6.93594e-06
0.0100096
-2.46077e-05
0.0100202
-3.66052e-05
0.0100357
-5.19823e-05
0.0100525
-6.0369e-05
0.0100715
-6.85965e-05
0.0100909
-7.36439e-05
0.0101105
-7.57261e-05
0.0101312
-7.97364e-05
0.0101512
-7.94547e-05
0.0101734
-8.3006e-05
0.0101946
-8.38972e-05
0.0102178
-8.56563e-05
0.0102403
-8.81917e-05
0.0102637
-8.73274e-05
0.0102872
-9.04857e-05
0.0103103
-8.81506e-05
0.0103347
-9.074e-05
0.0103577
-8.85077e-05
0.0103826
-8.97136e-05
0.0104059
-8.84337e-05
0.0104305
-8.77182e-05
0.0104549
-8.77245e-05
0.0104788
-8.49909e-05
0.010504
-8.57032e-05
0.0105274
-8.19864e-05
0.0105527
-8.16009e-05
0.0105766
-7.88915e-05
0.010601
-7.5469e-05
0.010626
-7.5017e-05
0.0106492
-6.79968e-05
0.010675
-6.89316e-05
0.0106977
-6.03386e-05
0.0107231
-5.9039e-05
0.0107468
-5.31673e-05
0.0107699
-4.51272e-05
0.0107961
-4.4576e-05
0.0108167
-3.02402e-05
0.0108442
-3.01664e-05
0.0108646
-1.74431e-05
0.0108906
-8.89402e-06
0.0109137
-3.18248e-06
0.0109368
1.34585e-05
0.0109623
1.91893e-05
0.0109852
3.3431e-05
0.0110101
4.92814e-05
0.0110355
5.72413e-05
0.01106
7.97126e-05
0.0110863
9.14472e-05
0.0111137
0.00011088
0.011139
0.000131198
0.0111702
0.000151779
0.0111974
0.000171003
0.011229
0.000204121
0.0112623
0.000217651
0.0112937
0.000260704
0.0113327
0.000278687
0.0113674
0.000322881
0.0114107
0.000350275
0.0114505
0.000400463
0.0115003
0.000431195
0.0115446
0.000494523
0.0116027
0.000532934
0.0116545
0.000601682
0.01172
0.000662173
0.011784
0.000736458
0.0118564
0.000816155
0.0119355
0.000916675
0.0120193
0.0010085
0.0121087
0.00115021
0.0122079
0.00126931
0.0123093
0.00145406
0.0124068
0.00162466
0.0125263
0.00186138
0.0126016
0.00211501
0.012714
0.00240129
0.0127575
0.00276255
0.0128113
0.00312609
0.0127985
0.00358742
0.0040474
0.012749
0.0100029
-9.84691e-06
0.0100123
-3.40218e-05
0.0100255
-4.97484e-05
0.0100439
-7.0369e-05
0.0100626
-7.90687e-05
0.0100833
-8.93169e-05
0.010103
-9.33759e-05
0.0101233
-9.60054e-05
0.010144
-0.000100442
0.0101646
-0.000100017
0.0101873
-0.000105784
0.010209
-0.000105599
0.0102331
-0.000109726
0.0102556
-0.000110647
0.0102798
-0.000111571
0.0103031
-0.000113752
0.0103268
-0.000111834
0.0103513
-0.000115315
0.0103741
-0.000111324
0.0104002
-0.000115771
0.0104224
-0.000110634
0.0104493
-0.000114566
0.0104717
-0.000110178
0.0104981
-0.000111435
0.0105217
-0.000109258
0.0105471
-0.000107336
0.0105718
-0.000106302
0.0105964
-0.000103561
0.0106213
-0.000100372
0.0106465
-0.000100176
0.0106703
-9.1784e-05
0.0106969
-9.55169e-05
0.0107192
-8.2656e-05
0.0107465
-8.63165e-05
0.010769
-7.56893e-05
0.0107945
-7.06849e-05
0.0108196
-6.9656e-05
0.0108421
-5.26922e-05
0.0108694
-5.74989e-05
0.0108911
-3.91671e-05
0.010917
-3.47968e-05
0.0109423
-2.84883e-05
0.010964
-8.26037e-06
0.0109931
-9.82341e-06
0.0110142
1.23164e-05
0.0110423
2.1132e-05
0.0110678
3.17918e-05
0.0110935
5.39796e-05
0.0111216
6.33743e-05
0.0111497
8.27254e-05
0.0111763
0.000104674
0.0112111
0.00011697
0.0112355
0.000146569
0.0112761
0.000163509
0.0113022
0.000191552
0.0113468
0.000216105
0.0113759
0.00024961
0.0114274
0.000271418
0.0114586
0.000319049
0.0115175
0.000341525
0.0115569
0.000391771
0.011618
0.00043346
0.0116715
0.000479482
0.0117388
0.000534382
0.0118019
0.000599068
0.0118821
0.000656264
0.0119612
0.000736977
0.0120516
0.000826295
0.0121473
0.000912807
0.0122687
0.00102882
0.0123634
0.00117461
0.0125207
0.00129671
0.0126366
0.00150884
0.0127868
0.00171113
0.0129325
0.00196928
0.0130623
0.00227154
0.0131826
0.0026422
0.0132758
0.00303291
0.0133289
0.00353433
0.00409002
0.0132863
0.0100046
-1.44869e-05
0.0100169
-4.62779e-05
0.0100352
-6.80559e-05
0.010057
-9.21414e-05
0.0100783
-0.000100393
0.0100999
-0.000110962
0.0101198
-0.000113231
0.0101409
-0.000117127
0.0101617
-0.000121176
0.010184
-0.000122381
0.0102068
-0.000128601
0.01023
-0.000128766
0.0102543
-0.000133976
0.0102772
-0.00013357
0.0103022
-0.000136625
0.0103247
-0.000136223
0.0103502
-0.000137327
0.0103731
-0.000138253
0.0103983
-0.000136463
0.0104227
-0.000140201
0.0104468
-0.000134748
0.0104727
-0.00014049
0.0104963
-0.000133735
0.0105224
-0.000137586
0.0105468
-0.000133616
0.0105717
-0.000132223
0.0105978
-0.000132414
0.0106211
-0.000126856
0.0106484
-0.000127632
0.0106714
-0.000123245
0.0106977
-0.000118044
0.0107228
-0.000120642
0.0107461
-0.000105925
0.010774
-0.000114238
0.0107952
-9.68592e-05
0.0108232
-9.86713e-05
0.0108463
-9.27593e-05
0.0108701
-7.65755e-05
0.0108983
-8.56712e-05
0.0109173
-5.81617e-05
0.0109488
-6.63101e-05
0.0109671
-4.67144e-05
0.0109975
-3.87511e-05
0.0110191
-3.1377e-05
0.0110469
-1.54861e-05
0.0110718
-3.77775e-06
0.0110994
4.1767e-06
0.0111252
2.81713e-05
0.0111556
3.2957e-05
0.0111815
5.69231e-05
0.0112145
7.1606e-05
0.0112443
8.7225e-05
0.0112756
0.000115232
0.011314
0.000125114
0.0113443
0.000161211
0.0113888
0.000171689
0.0114246
0.000213809
0.0114705
0.000225447
0.0115181
0.000271446
0.0115611
0.000298533
0.0116308
0.000322071
0.0116645
0.000399821
0.0117573
0.000386685
0.0118029
0.000488692
0.0118869
0.000515073
0.0119783
0.000564868
0.0120524
0.000662923
0.0121689
0.000709778
0.0122797
0.000802051
0.0123943
0.000914199
0.0125491
0.00101984
0.0126977
0.00114803
0.0128718
0.00133477
0.0130571
0.00152585
0.0132634
0.00176293
0.0134482
0.00208671
0.0136427
0.00244774
0.0137926
0.00288299
0.0139398
0.00338714
0.00407182
0.013958
0.0100073
-2.17431e-05
0.0100266
-6.56261e-05
0.0100521
-9.35776e-05
0.0100769
-0.000116953
0.0101007
-0.000124133
0.0101227
-0.000133034
0.0101436
-0.000134041
0.0101653
-0.000138849
0.0101871
-0.000142983
0.0102112
-0.000146534
0.0102346
-0.000151985
0.0102593
-0.000153467
0.0102831
-0.000157781
0.0103069
-0.000157292
0.0103313
-0.000161047
0.0103539
-0.000158881
0.0103793
-0.000162673
0.0104016
-0.000160621
0.0104272
-0.000161978
0.0104503
-0.000163343
0.0104748
-0.000159228
0.0104993
-0.000165027
0.0105224
-0.000156796
0.0105479
-0.000163148
0.0105702
-0.000155835
0.0105958
-0.000157859
0.010618
-0.000154608
0.010643
-0.000151905
0.0106653
-0.000149907
0.0106901
-0.000148028
0.0107114
-0.000139323
0.0107374
-0.000146686
0.0107559
-0.000124389
0.0107846
-0.000142984
0.0107999
-0.000112091
0.0108304
-0.000129193
0.0108448
-0.000107213
0.0108741
-0.000105887
0.0108908