/*--------------------------------*- C++ -*----------------------------------*\
| =========                 |                                                 |
| \\      /  F ield         | OpenFOAM: The Open Source CFD Toolbox           |
|  \\    /   O peration     | Version:  2306                                  |
|   \\  /    A nd           | Website:  www.openfoam.com                      |
|    \\/     M anipulation  |                                                 |
\*---------------------------------------------------------------------------*/
FoamFile
{
    version     2.0;
    format      ascii;
    arch        "LSB;label=32;scalar=64";
    class       volVectorField;
    location    "0.225";
    object      U;
}
// * * * * * * * * * * * * * * * * * * * * * * * * * * * * * * * * * * * * * //

dimensions      [0 1 -1 0 0 0 0];

internalField   nonuniform List<vector> 
4400
(
(9.90175 0.045522 0)
(9.80631 0.0987226 0)
(9.70001 0.120958 0)
(9.57017 0.125794 0)
(9.41809 0.124472 0)
(9.25221 0.123465 0)
(9.08055 0.124126 0)
(8.90825 0.125695 0)
(8.73716 0.126968 0)
(8.56785 0.12742 0)
(8.40002 0.126858 0)
(8.23344 0.125556 0)
(8.06786 0.123754 0)
(7.90333 0.121753 0)
(7.73989 0.119646 0)
(7.57769 0.117557 0)
(7.41691 0.115413 0)
(7.25761 0.113284 0)
(7.10004 0.111042 0)
(6.94413 0.108804 0)
(6.79022 0.106424 0)
(6.63802 0.104077 0)
(6.48805 0.101598 0)
(6.33983 0.0991518 0)
(6.19406 0.0966341 0)
(6.05002 0.09415 0)
(5.90859 0.0916259 0)
(5.76892 0.0891402 0)
(5.63189 0.0866488 0)
(5.49672 0.08423 0)
(5.36402 0.081817 0)
(5.23342 0.0795283 0)
(5.10489 0.0772223 0)
(4.97866 0.0751064 0)
(4.85396 0.0729695 0)
(4.73168 0.0710766 0)
(4.61028 0.0691779 0)
(4.49129 0.0676298 0)
(4.3724 0.0661039 0)
(4.25569 0.0650429 0)
(4.13821 0.0640422 0)
(4.0224 0.0636455 0)
(3.90496 0.06334 0)
(3.78832 0.0637427 0)
(3.66914 0.0642831 0)
(3.54949 0.0655838 0)
(3.42624 0.0671401 0)
(3.30089 0.0694413 0)
(3.17068 0.072183 0)
(3.03633 0.0755708 0)
(2.89569 0.0796526 0)
(2.74851 0.0842127 0)
(2.59344 0.0897204 0)
(2.42903 0.0954383 0)
(2.25519 0.102289 0)
(2.06885 0.108921 0)
(1.8719 0.116665 0)
(1.65931 0.123434 0)
(1.43571 0.13096 0)
(1.19406 0.136164 0)
(0.9425 0.141228 0)
(0.671958 0.141514 0)
(0.394591 0.13765 0)
(0.108627 0.107821 0)
(-0.144115 0.0511117 0)
(-0.396326 -0.0362764 0)
(-0.57257 -0.127542 0)
(-0.69493 -0.242857 0)
(-0.690925 -0.366112 0)
(-0.633576 -0.513072 0)
(-0.41155 -0.63352 0)
(-0.154109 -0.725053 0)
(0.137837 -0.571653 0)
(0.312568 -0.217661 0)
(0.383657 0.593207 0)
(-0.529365 0.881576 0)
(-0.511232 0.158926 0)
(-0.162063 -0.0713325 0)
(0.11829 -0.12857 0)
(-0.0911172 -0.291303 0)
(10 0.0612172 0)
(10.032 0.137464 0)
(10.0694 0.17363 0)
(10.1051 0.184939 0)
(10.1323 0.186163 0)
(10.1501 0.186241 0)
(10.1588 0.188285 0)
(10.1611 0.191951 0)
(10.159 0.195922 0)
(10.1539 0.199098 0)
(10.1466 0.201114 0)
(10.1369 0.201996 0)
(10.1252 0.202153 0)
(10.1106 0.201796 0)
(10.0942 0.201342 0)
(10.0745 0.200686 0)
(10.0533 0.200126 0)
(10.0287 0.199356 0)
(10.0033 0.198624 0)
(9.97419 0.197656 0)
(9.94502 0.196667 0)
(9.91172 0.195476 0)
(9.87904 0.194223 0)
(9.84182 0.19285 0)
(9.80583 0.191381 0)
(9.76495 0.189884 0)
(9.72565 0.188305 0)
(9.68142 0.18664 0)
(9.63878 0.185112 0)
(9.59146 0.183247 0)
(9.54541 0.181923 0)
(9.49506 0.179894 0)
(9.44566 0.178844 0)
(9.39207 0.176773 0)
(9.33935 0.176072 0)
(9.2821 0.174132 0)
(9.22609 0.173865 0)
(9.16454 0.1723 0)
(9.10517 0.172576 0)
(9.03836 0.1717 0)
(8.97536 0.172654 0)
(8.90207 0.172809 0)
(8.83491 0.174688 0)
(8.75371 0.176268 0)
(8.68144 0.179435 0)
(8.59068 0.182815 0)
(8.51175 0.187709 0)
(8.40953 0.193254 0)
(8.32171 0.200342 0)
(8.20574 0.208555 0)
(8.10612 0.218164 0)
(7.97351 0.229695 0)
(7.85854 0.242013 0)
(7.70562 0.257539 0)
(7.57106 0.272584 0)
(7.39334 0.292527 0)
(7.2343 0.310063 0)
(7.0266 0.334299 0)
(6.83743 0.353518 0)
(6.59443 0.380835 0)
(6.36901 0.399599 0)
(6.08566 0.42673 0)
(5.81798 0.439663 0)
(5.48984 0.458931 0)
(5.18157 0.452954 0)
(4.82194 0.453505 0)
(4.459 0.413989 0)
(4.03947 0.386136 0)
(3.57944 0.31524 0)
(3.04359 0.284135 0)
(2.36699 0.202966 0)
(1.52647 0.231854 0)
(0.471315 0.130769 0)
(-0.190939 0.0162174 0)
(-0.555583 0.144033 0)
(-0.438989 -0.00443081 0)
(-0.141529 -0.629232 0)
(-0.62011 -0.674901 0)
(-0.486766 0.067951 0)
(-0.430026 0.471973 0)
(9.99955 0.0268949 0)
(10.0173 0.0696639 0)
(10.0422 0.0999888 0)
(10.0753 0.117416 0)
(10.1077 0.126893 0)
(10.14 0.131802 0)
(10.1665 0.135951 0)
(10.1917 0.140279 0)
(10.2122 0.145383 0)
(10.2337 0.150322 0)
(10.2527 0.154949 0)
(10.2738 0.158629 0)
(10.2927 0.161766 0)
(10.3136 0.164026 0)
(10.3319 0.166183 0)
(10.3515 0.167778 0)
(10.3686 0.169494 0)
(10.3864 0.170925 0)
(10.4022 0.172251 0)
(10.418 0.173628 0)
(10.4325 0.174543 0)
(10.4464 0.175783 0)
(10.4594 0.17634 0)
(10.4715 0.177383 0)
(10.4824 0.177714 0)
(10.493 0.178569 0)
(10.5011 0.178804 0)
(10.5105 0.179457 0)
(10.5152 0.179731 0)
(10.5236 0.180239 0)
(10.5245 0.180638 0)
(10.5317 0.181152 0)
(10.5284 0.181705 0)
(10.5345 0.182458 0)
(10.5265 0.183282 0)
(10.5314 0.184505 0)
(10.5182 0.185738 0)
(10.5217 0.187781 0)
(10.503 0.189518 0)
(10.5046 0.192859 0)
(10.4799 0.19528 0)
(10.4791 0.200341 0)
(10.4481 0.20387 0)
(10.4441 0.211065 0)
(10.4063 0.216333 0)
(10.3981 0.226027 0)
(10.3527 0.233909 0)
(10.3392 0.246276 0)
(10.2851 0.25799 0)
(10.265 0.273115 0)
(10.2011 0.289895 0)
(10.1727 0.308077 0)
(10.0972 0.330922 0)
(10.0582 0.352678 0)
(9.96928 0.382237 0)
(9.91672 0.408124 0)
(9.81241 0.444405 0)
(9.74197 0.474625 0)
(9.61995 0.516885 0)
(9.52638 0.54991 0)
(9.38289 0.596268 0)
(9.25999 0.627247 0)
(9.08858 0.67285 0)
(8.92823 0.692304 0)
(8.71753 0.727979 0)
(8.50995 0.724039 0)
(8.23581 0.744162 0)
(7.95396 0.716837 0)
(7.59117 0.740633 0)
(7.20967 0.72599 0)
(6.73232 0.806578 0)
(6.22267 0.851524 0)
(5.6279 1.00488 0)
(4.97015 0.950924 0)
(4.37789 0.914386 0)
(3.339 0.717707 0)
(2.8221 0.497561 0)
(1.25764 0.348393 0)
(0.0961548 -0.207014 0)
(-0.182441 -0.684969 0)
(9.99918 0.0190168 0)
(10.0111 0.0524906 0)
(10.0266 0.0808282 0)
(10.0522 0.101027 0)
(10.0767 0.114905 0)
(10.1065 0.122923 0)
(10.1304 0.128564 0)
(10.1576 0.13235 0)
(10.178 0.136488 0)
(10.203 0.140095 0)
(10.2218 0.144191 0)
(10.2473 0.147301 0)
(10.2663 0.15057 0)
(10.2932 0.152478 0)
(10.3122 0.154867 0)
(10.3403 0.15577 0)
(10.3586 0.157792 0)
(10.3873 0.158152 0)
(10.4044 0.16008 0)
(10.4338 0.160254 0)
(10.4495 0.162017 0)
(10.4796 0.162223 0)
(10.4939 0.163571 0)
(10.5246 0.164077 0)
(10.5373 0.164857 0)
(10.5685 0.165846 0)
(10.579 0.166125 0)
(10.6111 0.167473 0)
(10.6188 0.167694 0)
(10.652 0.16907 0)
(10.6562 0.169766 0)
(10.6904 0.170931 0)
(10.6913 0.172466 0)
(10.7256 0.173459 0)
(10.7235 0.176096 0)
(10.7571 0.177055 0)
(10.7525 0.181046 0)
(10.7846 0.182252 0)
(10.7777 0.1878 0)
(10.8075 0.189733 0)
(10.7985 0.197054 0)
(10.8252 0.200196 0)
(10.8144 0.209773 0)
(10.8373 0.214389 0)
(10.8246 0.227102 0)
(10.8432 0.23319 0)
(10.8282 0.250333 0)
(10.8426 0.257747 0)
(10.8242 0.280756 0)
(10.8346 0.289769 0)
(10.8117 0.319404 0)
(10.8182 0.331357 0)
(10.7898 0.367442 0)
(10.7923 0.384332 0)
(10.7572 0.426413 0)
(10.7556 0.449841 0)
(10.7116 0.497514 0)
(10.7063 0.528324 0)
(10.6504 0.580387 0)
(10.6398 0.618559 0)
(10.5695 0.67183 0)
(10.548 0.716013 0)
(10.4598 0.764539 0)
(10.4159 0.811686 0)
(10.3033 0.847967 0)
(10.2171 0.895802 0)
(10.07 0.921023 0)
(9.91513 0.978047 0)
(9.72613 1.01025 0)
(9.47888 1.09435 0)
(9.24295 1.16 0)
(8.8829 1.28088 0)
(8.60253 1.36439 0)
(8.09802 1.46489 0)
(7.75285 1.47237 0)
(7.08684 1.52163 0)
(6.58471 1.44561 0)
(5.83116 1.49434 0)
(4.95779 1.43292 0)
(4.09071 1.18666 0)
(9.99923 0.013544 0)
(10.008 0.0382763 0)
(10.0183 0.0606446 0)
(10.0383 0.0776549 0)
(10.0569 0.0907358 0)
(10.0833 0.0986753 0)
(10.1039 0.104675 0)
(10.1309 0.107987 0)
(10.1498 0.111632 0)
(10.1759 0.114105 0)
(10.1933 0.117634 0)
(10.2201 0.119992 0)
(10.237 0.123255 0)
(10.2655 0.124909 0)
(10.2823 0.127611 0)
(10.3124 0.128382 0)
(10.3288 0.130715 0)
(10.36 0.130878 0)
(10.3755 0.133141 0)
(10.4075 0.13309 0)
(10.4223 0.135325 0)
(10.4546 0.135235 0)
(10.4691 0.137386 0)
(10.5011 0.137338 0)
(10.5159 0.139474 0)
(10.5469 0.139462 0)
(10.5622 0.141675 0)
(10.5919 0.141672 0)
(10.6075 0.144274 0)
(10.6358 0.144047 0)
(10.6514 0.147628 0)
(10.6783 0.146718 0)
(10.6935 0.152001 0)
(10.7191 0.150142 0)
(10.7336 0.157516 0)
(10.7578 0.154991 0)
(10.7713 0.164331 0)
(10.794 0.161932 0)
(10.8064 0.172915 0)
(10.8274 0.171642 0)
(10.8385 0.183877 0)
(10.8576 0.184975 0)
(10.8675 0.197874 0)
(10.8842 0.202984 0)
(10.893 0.215779 0)
(10.9075 0.22664 0)
(10.9143 0.23899 0)
(10.9275 0.256661 0)
(10.9312 0.269644 0)
(10.9445 0.293526 0)
(10.9432 0.310147 0)
(10.959 0.338313 0)
(10.9505 0.361997 0)
(10.9701 0.393397 0)
(10.9551 0.425591 0)
(10.9763 0.461222 0)
(10.9579 0.501349 0)
(10.9771 0.542611 0)
(10.9581 0.589565 0)
(10.971 0.636526 0)
(10.9536 0.688883 0)
(10.9526 0.739765 0)
(10.9384 0.796791 0)
(10.9122 0.847166 0)
(10.8975 0.911448 0)
(10.8351 0.95856 0)
(10.81 1.03712 0)
(10.701 1.08841 0)
(10.6537 1.18966 0)
(10.49 1.25971 0)
(10.4076 1.38784 0)
(10.187 1.48785 0)
(10.053 1.62677 0)
(9.77721 1.74329 0)
(9.55471 1.84961 0)
(9.2224 1.95422 0)
(8.84199 1.99212 0)
(8.42118 2.05218 0)
(7.77228 2.00414 0)
(7.12368 1.93002 0)
(9.99932 0.00981006 0)
(10.0061 0.0278901 0)
(10.0139 0.0449396 0)
(10.0299 0.0586243 0)
(10.0452 0.0700641 0)
(10.0678 0.0775549 0)
(10.0867 0.0835827 0)
(10.1116 0.08685 0)
(10.1307 0.090354 0)
(10.1556 0.0923552 0)
(10.174 0.0953457 0)
(10.1992 0.0973304 0)
(10.2174 0.100042 0)
(10.2437 0.101859 0)
(10.2624 0.104069 0)
(10.2894 0.105334 0)
(10.3087 0.107168 0)
(10.3358 0.107763 0)
(10.3558 0.10974 0)
(10.3824 0.109727 0)
(10.4031 0.1122 0)
(10.4288 0.111555 0)
(10.4505 0.114695 0)
(10.4747 0.113465 0)
(10.498 0.117341 0)
(10.52 0.11557 0)
(10.545 0.120121 0)
(10.5649 0.118068 0)
(10.591 0.123187 0)
(10.6094 0.121204 0)
(10.6354 0.126768 0)
(10.6532 0.125147 0)
(10.6778 0.131262 0)
(10.6962 0.130134 0)
(10.7181 0.137063 0)
(10.738 0.136634 0)
(10.756 0.144363 0)
(10.7781 0.145492 0)
(10.7916 0.153332 0)
(10.8161 0.157619 0)
(10.825 0.164417 0)
(10.8512 0.1738 0)
(10.8568 0.17843 0)
(10.8827 0.194722 0)
(10.8871 0.196656 0)
(10.9108 0.220782 0)
(10.9154 0.220932 0)
(10.9361 0.252517 0)
(10.9418 0.252981 0)
(10.9585 0.291075 0)
(10.9669 0.294458 0)
(10.9786 0.337448 0)
(10.9908 0.34782 0)
(10.9974 0.392082 0)
(11.0142 0.415116 0)
(11.0145 0.456769 0)
(11.0396 0.495961 0)
(11.0286 0.53413 0)
(11.0666 0.589668 0)
(11.0416 0.624354 0)
(11.0901 0.695974 0)
(11.054 0.727563 0)
(11.1035 0.812228 0)
(11.0604 0.84648 0)
(11.0993 0.938275 0)
(11.0501 0.985543 0)
(11.0674 1.08173 0)
(11.0088 1.15439 0)
(10.9965 1.25572 0)
(10.9226 1.36633 0)
(10.8751 1.47523 0)
(10.7812 1.62837 0)
(10.6931 1.74646 0)
(10.5757 1.92267 0)
(10.4286 2.04918 0)
(10.2772 2.19842 0)
(10.023 2.32635 0)
(9.79076 2.4098 0)
(9.36855 2.51806 0)
(8.95192 2.54491 0)
(9.99977 0.00714152 0)
(10.0045 0.0198533 0)
(10.012 0.0327866 0)
(10.0244 0.0429202 0)
(10.0389 0.0524794 0)
(10.0572 0.058594 0)
(10.0763 0.0642856 0)
(10.0974 0.0670911 0)
(10.1185 0.0703704 0)
(10.14 0.0719228 0)
(10.1617 0.0743691 0)
(10.1829 0.0759345 0)
(10.2052 0.078076 0)
(10.2267 0.0796866 0)
(10.2499 0.0815771 0)
(10.2717 0.0826893 0)
(10.2957 0.0844981 0)
(10.3176 0.084849 0)
(10.3425 0.0869823 0)
(10.3642 0.0867253 0)
(10.3894 0.0892271 0)
(10.4108 0.0887014 0)
(10.4363 0.0914299 0)
(10.4572 0.0910632 0)
(10.4831 0.0937745 0)
(10.5033 0.0938478 0)
(10.5294 0.0962953 0)
(10.5491 0.0972366 0)
(10.5745 0.0991808 0)
(10.5949 0.101418 0)
(10.6181 0.10273 0)
(10.6403 0.106456 0)
(10.6597 0.10748 0)
(10.6852 0.112503 0)
(10.6993 0.113845 0)
(10.7291 0.119971 0)
(10.7369 0.122121 0)
(10.7716 0.129495 0)
(10.7727 0.132806 0)
(10.8118 0.141472 0)
(10.8073 0.146814 0)
(10.8488 0.156291 0)
(10.8418 0.164911 0)
(10.8814 0.175226 0)
(10.8771 0.187077 0)
(10.909 0.200216 0)
(10.9136 0.213768 0)
(10.932 0.232222 0)
(10.9508 0.247133 0)
(10.9519 0.271216 0)
(10.9882 0.28954 0)
(10.9704 0.318343 0)
(11.0248 0.341948 0)
(10.9899 0.375537 0)
(11.0593 0.405883 0)
(11.0135 0.443092 0)
(11.0904 0.48371 0)
(11.0423 0.52199 0)
(11.1188 0.574526 0)
(11.0737 0.615907 0)
(11.1462 0.676778 0)
(11.1041 0.726138 0)
(11.17 0.793315 0)
(11.1301 0.85353 0)
(11.1849 0.928497 0)
(11.1458 1.00337 0)
(11.1838 1.08993 0)
(11.143 1.183 0)
(11.1591 1.29057 0)
(11.1125 1.40083 0)
(11.1034 1.54483 0)
(11.0489 1.66482 0)
(11.0089 1.85194 0)
(10.9431 1.9829 0)
(10.8672 2.18295 0)
(10.7651 2.339 0)
(10.6446 2.50988 0)
(10.4567 2.68447 0)
(10.2585 2.82892 0)
(9.93114 2.99204 0)
(10.0013 0.00514164 0)
(10.0023 0.0130815 0)
(10.0122 0.0227466 0)
(10.0198 0.029178 0)
(10.0363 0.0368664 0)
(10.0493 0.0407139 0)
(10.0707 0.0459754 0)
(10.087 0.0472891 0)
(10.1112 0.0509924 0)
(10.1284 0.0509438 0)
(10.1539 0.0541674 0)
(10.1711 0.053844 0)
(10.1973 0.0569366 0)
(10.2148 0.0567732 0)
(10.2416 0.059584 0)
(10.2594 0.0593601 0)
(10.287 0.0618555 0)
(10.3053 0.0614615 0)
(10.3333 0.0638958 0)
(10.352 0.0634345 0)
(10.3796 0.0657654 0)
(10.3994 0.0656114 0)
(10.4256 0.0676874 0)
(10.447 0.0683273 0)
(10.4714 0.0698203 0)
(10.494 0.0716099 0)
(10.5171 0.0722224 0)
(10.5405 0.0756547 0)
(10.5622 0.0751084 0)
(10.5867 0.0805885 0)
(10.606 0.0788498 0)
(10.6327 0.0863365 0)
(10.6482 0.0842303 0)
(10.6782 0.0926827 0)
(10.6888 0.0921525 0)
(10.7225 0.0994938 0)
(10.7278 0.103208 0)
(10.7654 0.107474 0)
(10.7657 0.117272 0)
(10.8059 0.118045 0)
(10.8032 0.134043 0)
(10.8428 0.13243 0)
(10.8419 0.15405 0)
(10.8749 0.151304 0)
(10.8825 0.178147 0)
(10.9021 0.175909 0)
(10.9248 0.206542 0)
(10.9256 0.208383 0)
(10.9682 0.239325 0)
(10.947 0.250378 0)
(11.0117 0.278138 0)
(10.9687 0.301997 0)
(11.0534 0.325794 0)
(10.9944 0.363639 0)
(11.0917 0.383462 0)
(11.0257 0.437484 0)
(11.1277 0.451963 0)
(11.0617 0.523935 0)
(11.1626 0.534785 0)
(11.1011 0.622119 0)
(11.1971 0.634639 0)
(11.1409 0.734458 0)
(11.2311 0.753948 0)
(11.1779 0.863432 0)
(11.2603 0.899817 0)
(11.2098 1.01263 0)
(11.2775 1.07965 0)
(11.2338 1.19286 0)
(11.2743 1.29803 0)
(11.2441 1.42254 0)
(11.2483 1.55671 0)
(11.2277 1.71516 0)
(11.1976 1.86699 0)
(11.177 2.05659 0)
(11.1065 2.24028 0)
(11.0779 2.42936 0)
(10.9494 2.65174 0)
(10.8925 2.8413 0)
(10.6788 3.06373 0)
(10.5623 3.28353 0)
(10.0026 0.00322041 0)
(10.0006 0.00737489 0)
(10.0128 0.0136588 0)
(10.0168 0.0168841 0)
(10.0352 0.022272 0)
(10.0443 0.0238994 0)
(10.0677 0.0280874 0)
(10.0803 0.0280557 0)
(10.107 0.0314698 0)
(10.1209 0.0304521 0)
(10.1493 0.0335555 0)
(10.1634 0.0324421 0)
(10.1927 0.0352766 0)
(10.2069 0.0346764 0)
(10.2368 0.0369513 0)
(10.2514 0.036776 0)
(10.282 0.038579 0)
(10.2971 0.0386271 0)
(10.3283 0.0403154 0)
(10.3436 0.0404384 0)
(10.3748 0.0420337 0)
(10.391 0.0425541 0)
(10.4209 0.0439614 0)
(10.4391 0.0452466 0)
(10.4663 0.0462859 0)
(10.4872 0.0484742 0)
(10.5113 0.0491358 0)
(10.5349 0.0524897 0)
(10.556 0.0526237 0)
(10.5821 0.0575225 0)
(10.5999 0.0570009 0)
(10.6289 0.0636147 0)
(10.6426 0.0629229 0)
(10.6749 0.0706321 0)
(10.6845 0.0711861 0)
(10.719 0.0785551 0)
(10.7263 0.0823775 0)
(10.7607 0.0877543 0)
(10.7681 0.0969005 0)
(10.7999 0.0988686 0)
(10.8098 0.115179 0)
(10.8363 0.112703 0)
(10.8522 0.137508 0)
(10.8691 0.130713 0)
(10.8962 0.163301 0)
(10.8982 0.155524 0)
(10.9416 0.191841 0)
(10.9253 0.189032 0)
(10.9869 0.224245 0)
(10.9528 0.231557 0)
(11.0314 0.262339 0)
(10.9813 0.284271 0)
(11.0765 0.306885 0)
(11.0111 0.348596 0)
(11.1226 0.360472 0)
(11.0445 0.42302 0)
(11.1676 0.428146 0)
(11.0845 0.50596 0)
(11.2099 0.513545 0)
(11.1321 0.59825 0)
(11.2488 0.619489 0)
(11.187 0.703278 0)
(11.2835 0.746954 0)
(11.2461 0.829793 0)
(11.3147 0.895581 0)
(11.3024 0.988662 0)
(11.3431 1.07025 0)
(11.3488 1.18726 0)
(11.3639 1.28689 0)
(11.3836 1.42556 0)
(11.3664 1.5659 0)
(11.4024 1.71176 0)
(11.3444 1.90402 0)
(11.3902 2.07269 0)
(11.2891 2.28426 0)
(11.3339 2.5097 0)
(11.1744 2.71821 0)
(11.2078 2.98882 0)
(10.9762 3.21594 0)
(10.949 3.49817 0)
(10.0025 0.00150138 0)
(10.0005 0.00209887 0)
(10.0125 0.00499556 0)
(10.016 0.00547727 0)
(10.0343 0.00793187 0)
(10.0425 0.00807245 0)
(10.066 0.0100214 0)
(10.0775 0.00965145 0)
(10.1049 0.0115011 0)
(10.1174 0.010552 0)
(10.1473 0.0126388 0)
(10.1595 0.0114025 0)
(10.191 0.0136939 0)
(10.2029 0.012632 0)
(10.2351 0.0146318 0)
(10.2474 0.0140092 0)
(10.2801 0.015672 0)
(10.2932 0.0155391 0)
(10.3265 0.016997 0)
(10.3395 0.0172442 0)
(10.3735 0.0183882 0)
(10.3866 0.0194978 0)
(10.4202 0.0200625 0)
(10.4348 0.0223714 0)
(10.4656 0.0223905 0)
(10.4838 0.02551 0)
(10.5102 0.0258574 0)
(10.5326 0.029031 0)
(10.5549 0.0304647 0)
(10.5803 0.0335058 0)
(10.5997 0.0359132 0)
(10.627 0.0395392 0)
(10.6439 0.0425488 0)
(10.6728 0.0468477 0)
(10.6878 0.0515748 0)
(10.7167 0.0547834 0)
(10.7319 0.0641619 0)
(10.7583 0.0635479 0)
(10.7763 0.0801636 0)
(10.7978 0.0748286 0)
(10.8205 0.0986089 0)
(10.8354 0.0904552 0)
(10.865 0.119712 0)
(10.8706 0.110581 0)
(10.9106 0.145051 0)
(10.9034 0.135646 0)
(10.9572 0.174313 0)
(10.9351 0.169262 0)
(11.0044 0.205425 0)
(10.9669 0.213798 0)
(11.0521 0.241198 0)
(11.0007 0.265826 0)
(11.0994 0.288072 0)
(11.0389 0.32333 0)
(11.1456 0.347046 0)
(11.0835 0.390818 0)
(11.19 0.416483 0)
(11.1365 0.471136 0)
(11.2323 0.499172 0)
(11.1982 0.565599 0)
(11.2736 0.597274 0)
(11.2675 0.679054 0)
(11.3144 0.713897 0)
(11.3424 0.814145 0)
(11.3551 0.859733 0)
(11.4189 0.970673 0)
(11.396 1.0471 0)
(11.4905 1.16027 0)
(11.4379 1.27311 0)
(11.5479 1.4131 0)
(11.4765 1.53537 0)
(11.5885 1.73829 0)
(11.4936 1.86502 0)
(11.6075 2.11774 0)
(11.4799 2.28786 0)
(11.5682 2.55979 0)
(11.439 2.78501 0)
(11.4364 3.08046 0)
(11.3275 3.34655 0)
(11.2028 3.65823 0)
(10.0017 -0.000262521 0)
(10.0014 -0.00294719 0)
(10.0119 -0.00359219 0)
(10.0168 -0.00568078 0)
(10.0338 -0.00622169 0)
(10.0432 -0.00765501 0)
(10.0657 -0.00775986 0)
(10.0782 -0.00887579 0)
(10.1046 -0.00814427 0)
(10.118 -0.00962689 0)
(10.1471 -0.0079402 0)
(10.1599 -0.00986054 0)
(10.1911 -0.00770014 0)
(10.2032 -0.00942801 0)
(10.2353 -0.00783639 0)
(10.2479 -0.00844238 0)
(10.2803 -0.00772503 0)
(10.2943 -0.00707321 0)
(10.3264 -0.00688855 0)
(10.3411 -0.00569874 0)
(10.3736 -0.00545939 0)
(10.3881 -0.00381885 0)
(10.4214 -0.00362161 0)
(10.4353 -0.001038 0)
(10.4686 -0.00141541 0)
(10.483 0.00245634 0)
(10.5152 0.00183436 0)
(10.5309 0.00637521 0)
(10.5615 0.00668459 0)
(10.5782 0.0106958 0)
(10.6075 0.0132474 0)
(10.6251 0.015933 0)
(10.6528 0.0214905 0)
(10.6718 0.0226224 0)
(10.6972 0.0315424 0)
(10.7172 0.0309678 0)
(10.742 0.0440162 0)
(10.7603 0.0412571 0)
(10.7875 0.0590964 0)
(10.8015 0.054523 0)
(10.8329 0.0763113 0)
(10.8419 0.0724176 0)
(10.8777 0.0953456 0)
(10.8809 0.0959177 0)
(10.924 0.117216 0)
(10.917 0.124772 0)
(10.9731 0.143767 0)
(10.9517 0.158912 0)
(11.0222 0.176234 0)
(10.9899 0.199681 0)
(11.0687 0.214535 0)
(11.0336 0.249091 0)
(11.1137 0.260078 0)
(11.0828 0.30674 0)
(11.1584 0.315822 0)
(11.1392 0.373859 0)
(11.2023 0.381976 0)
(11.2044 0.453682 0)
(11.2468 0.461592 0)
(11.2765 0.544479 0)
(11.2964 0.563167 0)
(11.3528 0.646619 0)
(11.3527 0.688234 0)
(11.4341 0.773106 0)
(11.4147 0.831164 0)
(11.518 0.941334 0)
(11.4845 0.996537 0)
(11.6015 1.15192 0)
(11.5558 1.21722 0)
(11.6862 1.39095 0)
(11.6255 1.51884 0)
(11.7485 1.68514 0)
(11.7079 1.88222 0)
(11.7628 2.08011 0)
(11.7732 2.3119 0)
(11.7497 2.56564 0)
(11.757 2.84508 0)
(11.6944 3.12753 0)
(11.6351 3.47126 0)
(11.557 3.78086 0)
(10.0013 -0.00212113 0)
(10.0019 -0.0083128 0)
(10.0118 -0.0121357 0)
(10.0181 -0.0173439 0)
(10.0343 -0.0203192 0)
(10.0457 -0.0237498 0)
(10.0669 -0.0255772 0)
(10.0818 -0.0274131 0)
(10.1062 -0.0280932 0)
(10.1223 -0.0294513 0)
(10.149 -0.0290796 0)
(10.1644 -0.0306433 0)
(10.1933 -0.0297619 0)
(10.2076 -0.0311948 0)
(10.2379 -0.0307571 0)
(10.2526 -0.0308594 0)
(10.2832 -0.0313392 0)
(10.2994 -0.0298201 0)
(10.3294 -0.0309551 0)
(10.3466 -0.0287718 0)
(10.3769 -0.0294615 0)
(10.3937 -0.0274411 0)
(10.4255 -0.0271374 0)
(10.4406 -0.0253544 0)
(10.4738 -0.0243425 0)
(10.4879 -0.0223323 0)
(10.5215 -0.0206365 0)
(10.5356 -0.0185457 0)
(10.569 -0.015514 0)
(10.5829 -0.0139981 0)
(10.6164 -0.00895111 0)
(10.6299 -0.00800338 0)
(10.663 -0.00120018 0)
(10.677 2.14027e-05 0)
(10.7086 0.00811121 0)
(10.7235 0.00965907 0)
(10.7545 0.0203697 0)
(10.7676 0.0205057 0)
(10.8021 0.0358708 0)
(10.809 0.0342091 0)
(10.8505 0.0528372 0)
(10.8499 0.0534071 0)
(10.8976 0.0709864 0)
(10.8919 0.0773575 0)
(10.9434 0.0938654 0)
(10.9343 0.103635 0)
(10.9906 0.123493 0)
(10.9758 0.134567 0)
(11.0396 0.156552 0)
(11.0192 0.175321 0)
(11.0879 0.19238 0)
(11.0683 0.224362 0)
(11.1356 0.237559 0)
(11.1219 0.277112 0)
(11.187 0.296696 0)
(11.1795 0.335232 0)
(11.2413 0.368297 0)
(11.2461 0.405403 0)
(11.2966 0.449239 0)
(11.3225 0.494136 0)
(11.358 0.541055 0)
(11.4043 0.603509 0)
(11.4306 0.652636 0)
(11.4913 0.730379 0)
(11.5138 0.800765 0)
(11.5851 0.871216 0)
(11.611 0.996997 0)
(11.6763 1.04827 0)
(11.7314 1.22538 0)
(11.7591 1.30523 0)
(11.8574 1.48923 0)
(11.8599 1.63716 0)
(11.9425 1.85067 0)
(11.9807 2.02779 0)
(11.9929 2.32316 0)
(12.0555 2.5343 0)
(12.0043 2.87576 0)
(12.0661 3.18233 0)
(11.9126 3.51525 0)
(11.9593 3.93891 0)
(10.0009 -0.00391239 0)
(10.0026 -0.0142131 0)
(10.0124 -0.0212553 0)
(10.02 -0.0296177 0)
(10.0367 -0.0352777 0)
(10.0495 -0.040155 0)
(10.0711 -0.0441781 0)
(10.0875 -0.0459648 0)
(10.1114 -0.0485023 0)
(10.1292 -0.049369 0)
(10.1547 -0.050222 0)
(10.1718 -0.0520978 0)
(10.1993 -0.0513038 0)
(10.2149 -0.0542725 0)
(10.2448 -0.0526122 0)
(10.2598 -0.0548744 0)
(10.291 -0.0537291 0)
(10.3067 -0.0540141 0)
(10.3374 -0.0541415 0)
(10.3546 -0.0527861 0)
(10.3847 -0.0531483 0)
(10.4029 -0.0515808 0)
(10.4326 -0.0506742 0)
(10.4513 -0.0501722 0)
(10.4802 -0.0472072 0)
(10.5002 -0.0478159 0)
(10.5277 -0.0431007 0)
(10.5489 -0.0439012 0)
(10.5758 -0.0384118 0)
(10.5963 -0.0383787 0)
(10.6251 -0.0326538 0)
(10.6424 -0.0312694 0)
(10.6745 -0.0255115 0)
(10.6887 -0.0222283 0)
(10.7224 -0.016875 0)
(10.7355 -0.0111314 0)
(10.7699 -0.00554113 0)
(10.7808 0.000793018 0)
(10.819 0.0104678 0)
(10.8233 0.0131413 0)
(10.8692 0.0305513 0)
(10.8659 0.0293748 0)
(10.9171 0.0506713 0)
(10.9117 0.0539614 0)
(10.9624 0.0699737 0)
(10.9593 0.0847755 0)
(11.0092 0.09527 0)
(11.0052 0.116239 0)
(11.0603 0.129856 0)
(11.0518 0.151409 0)
(11.1116 0.169139 0)
(11.1055 0.196319 0)
(11.1607 0.212983 0)
(11.1663 0.248239 0)
(11.2139 0.26842 0)
(11.2296 0.305576 0)
(11.2753 0.334664 0)
(11.2979 0.375507 0)
(11.3426 0.411414 0)
(11.3754 0.455935 0)
(11.4193 0.5113 0)
(11.4584 0.541996 0)
(11.5125 0.637288 0)
(11.5457 0.654481 0)
(11.6228 0.76851 0)
(11.6458 0.824435 0)
(11.7391 0.910319 0)
(11.7772 1.03527 0)
(11.8473 1.1214 0)
(11.9413 1.26384 0)
(11.9634 1.41993 0)
(12.0991 1.57185 0)
(12.1089 1.77012 0)
(12.24 2.01103 0)
(12.2318 2.21577 0)
(12.376 2.56492 0)
(12.296 2.8079 0)
(12.4309 3.23241 0)
(12.2945 3.57656 0)
(12.3429 3.99084 0)
(9.9999 -0.0061404 0)
(10.004 -0.0208344 0)
(10.0131 -0.0314438 0)
(10.0236 -0.0432641 0)
(10.0404 -0.0511246 0)
(10.0566 -0.0577405 0)
(10.0775 -0.0631015 0)
(10.0977 -0.06514 0)
(10.119 -0.0689198 0)
(10.1414 -0.0694691 0)
(10.1622 -0.0715847 0)
(10.1849 -0.0735181 0)
(10.2068 -0.0733942 0)
(10.2283 -0.0771521 0)
(10.253 -0.0749547 0)
(10.2734 -0.0788338 0)
(10.3002 -0.0761999 0)
(10.3205 -0.0785289 0)
(10.3473 -0.0771203 0)
(10.3686 -0.0770508 0)
(10.3952 -0.0772398 0)
(10.4171 -0.0748986 0)
(10.4438 -0.0762766 0)
(10.4656 -0.0723691 0)
(10.4921 -0.0739292 0)
(10.5152 -0.069522 0)
(10.5397 -0.0698292 0)
(10.5655 -0.0662022 0)
(10.5874 -0.0641562 0)
(10.6147 -0.0616906 0)
(10.6369 -0.057488 0)
(10.6619 -0.0548469 0)
(10.6875 -0.0504081 0)
(10.7087 -0.045007 0)
(10.7366 -0.0424132 0)
(10.7575 -0.0329428 0)
(10.7833 -0.0313838 0)
(10.8066 -0.0206111 0)
(10.8312 -0.0153569 0)
(10.8521 -0.00769896 0)
(10.8833 0.00379828 0)
(10.8943 0.0101741 0)
(10.9355 0.0221169 0)
(10.9403 0.0357276 0)
(10.9815 0.0415836 0)
(10.9943 0.0641779 0)
(11.0246 0.0690277 0)
(11.0484 0.0920483 0)
(11.0741 0.105022 0)
(11.0998 0.124725 0)
(11.1279 0.143037 0)
(11.1574 0.169274 0)
(11.1787 0.182208 0)
(11.2245 0.22216 0)
(11.2345 0.233422 0)
(11.2909 0.275031 0)
(11.3058 0.30193 0)
(11.3576 0.334696 0)
(11.3865 0.376301 0)
(11.4373 0.420429 0)
(11.471 0.44707 0)
(11.5345 0.535247 0)
(11.5625 0.534438 0)
(11.653 0.655107 0)
(11.6601 0.674185 0)
(11.7955 0.772237 0)
(11.7809 0.860742 0)
(11.9379 0.938432 0)
(11.9539 1.05746 0)
(12.0813 1.19613 0)
(12.1457 1.29574 0)
(12.2745 1.52655 0)
(12.3223 1.64337 0)
(12.4872 1.93652 0)
(12.5255 2.14404 0)
(12.6448 2.45968 0)
(12.7146 2.81233 0)
(12.7553 3.16753 0)
(12.7737 3.62894 0)
(12.7425 4.07823 0)
(9.99929 -0.00840227 0)
(10.0058 -0.0297621 0)
(10.0149 -0.042825 0)
(10.0295 -0.0600082 0)
(10.0467 -0.0679738 0)
(10.0675 -0.0774861 0)
(10.0879 -0.0823019 0)
(10.1124 -0.0849507 0)
(10.1309 -0.0896697 0)
(10.1582 -0.0891258 0)
(10.1738 -0.0940691 0)
(10.2027 -0.0938113 0)
(10.2181 -0.0971283 0)
(10.2469 -0.0984451 0)
(10.2649 -0.0988129 0)
(10.2926 -0.101339 0)
(10.3133 -0.0994723 0)
(10.3396 -0.102395 0)
(10.362 -0.0997195 0)
(10.3871 -0.101942 0)
(10.4119 -0.0997352 0)
(10.4343 -0.100025 0)
(10.463 -0.0994174 0)
(10.4814 -0.0970645 0)
(10.5137 -0.0978056 0)
(10.5304 -0.0939663 0)
(10.5626 -0.093724 0)
(10.5816 -0.0912379 0)
(10.6102 -0.0870977 0)
(10.6331 -0.0881726 0)
(10.6589 -0.078744 0)
(10.6826 -0.083035 0)
(10.7095 -0.0703445 0)
(10.7308 -0.0733069 0)
(10.7596 -0.0637512 0)
(10.781 -0.0577445 0)
(10.8065 -0.0574931 0)
(10.8332 -0.0402104 0)
(10.8531 -0.0449574 0)
(10.8822 -0.0270453 0)
(10.9055 -0.0220733 0)
(10.925 -0.0163204 0)
(10.9617 0.00398663 0)
(10.9701 0.00298985 0)
(11.0108 0.0246365 0)
(11.0269 0.0341635 0)
(11.0519 0.0452638 0)
(11.0891 0.0663884 0)
(11.0988 0.0779307 0)
(11.145 0.0956249 0)
(11.1572 0.119207 0)
(11.2004 0.133148 0)
(11.2173 0.158438 0)
(11.267 0.186294 0)
(11.2774 0.19789 0)
(11.3412 0.249402 0)
(11.3459 0.248046 0)
(11.4227 0.316301 0)
(11.4215 0.315499 0)
(11.5189 0.384373 0)
(11.5062 0.409655 0)
(11.6244 0.450223 0)
(11.6195 0.532597 0)
(11.7259 0.536638 0)
(11.7704 0.652421 0)
(11.8445 0.691763 0)
(11.926 0.760609 0)
(12.0258 0.892959 0)
(12.0811 0.940403 0)
(12.2344 1.09038 0)
(12.3192 1.22607 0)
(12.4145 1.35132 0)
(12.6215 1.58164 0)
(12.6492 1.75409 0)
(12.8949 2.05828 0)
(12.9183 2.32069 0)
(13.1543 2.72371 0)
(13.1241 3.10863 0)
(13.3342 3.61182 0)
(13.1854 4.11262 0)
(10.0008 -0.0122726 0)
(10.0064 -0.0404425 0)
(10.021 -0.058251 0)
(10.0367 -0.079603 0)
(10.0599 -0.0881951 0)
(10.0818 -0.0992272 0)
(10.1063 -0.103204 0)
(10.1308 -0.106308 0)
(10.151 -0.111206 0)
(10.1781 -0.110708 0)
(10.1935 -0.117077 0)
(10.2239 -0.1163 0)
(10.2374 -0.121158 0)
(10.2698 -0.121549 0)
(10.2844 -0.122925 0)
(10.3171 -0.125146 0)
(10.3331 -0.122885 0)
(10.3651 -0.127591 0)
(10.3823 -0.121769 0)
(10.4131 -0.129039 0)
(10.433 -0.1205 0)
(10.4603 -0.128426 0)
(10.4854 -0.120032 0)
(10.507 -0.125125 0)
(10.5378 -0.119802 0)
(10.5553 -0.120284 0)
(10.5885 -0.117791 0)
(10.6058 -0.115796 0)
(10.6379 -0.112452 0)
(10.6567 -0.112238 0)
(10.6881 -0.103811 0)
(10.7056 -0.107903 0)
(10.7405 -0.0943251 0)
(10.7526 -0.0989052 0)
(10.7927 -0.0873647 0)
(10.8019 -0.0829515 0)
(10.8399 -0.081662 0)
(10.8564 -0.0646416 0)
(10.8833 -0.0695177 0)
(10.9106 -0.0514158 0)
(10.9318 -0.0462646 0)
(10.9565 -0.0415143 0)
(10.9889 -0.0194947 0)
(10.9992 -0.0230652 0)
(11.0438 0.000638868 0)
(11.0522 0.00858574 0)
(11.089 0.0189717 0)
(11.1146 0.0421802 0)
(11.1373 0.0487628 0)
(11.1724 0.0698304 0)
(11.1987 0.0898603 0)
(11.228 0.100903 0)
(11.2637 0.133516 0)
(11.2949 0.141073 0)
(11.3307 0.184492 0)
(11.3655 0.179686 0)
(11.4184 0.255818 0)
(11.4285 0.217532 0)
(11.5273 0.331948 0)
(11.507 0.288636 0)
(11.6294 0.380385 0)
(11.6327 0.4118 0)
(11.7179 0.423487 0)
(11.7919 0.534612 0)
(11.8416 0.535863 0)
(11.9409 0.621214 0)
(12.033 0.708196 0)
(12.0989 0.748295 0)
(12.2577 0.879063 0)
(12.3249 0.954438 0)
(12.5013 1.10147 0)
(12.6074 1.22042 0)
(12.8112 1.40452 0)
(12.9337 1.62179 0)
(13.1774 1.84605 0)
(13.2805 2.1788 0)
(13.5744 2.54429 0)
(13.6156 3.01204 0)
(13.8424 3.52688 0)
(13.8565 4.17376 0)
(10.0052 -0.0182818 0)
(10.0048 -0.0543854 0)
(10.0333 -0.0785279 0)
(10.0467 -0.103274 0)
(10.0821 -0.112013 0)
(10.1029 -0.124368 0)
(10.1333 -0.126348 0)
(10.1575 -0.131817 0)
(10.1781 -0.135288 0)
(10.2069 -0.137786 0)
(10.2193 -0.143472 0)
(10.2548 -0.144054 0)
(10.2622 -0.149519 0)
(10.3033 -0.148202 0)
(10.3083 -0.153064 0)
(10.3525 -0.150106 0)
(10.3557 -0.15452 0)
(10.4014 -0.151711 0)
(10.4036 -0.153679 0)
(10.4491 -0.153906 0)
(10.4535 -0.151292 0)
(10.4946 -0.154811 0)
(10.5055 -0.149626 0)
(10.5381 -0.152025 0)
(10.558 -0.149652 0)
(10.582 -0.14581 0)
(10.6093 -0.149376 0)
(10.6268 -0.139193 0)
(10.6593 -0.145238 0)
(10.6709 -0.135302 0)
(10.7098 -0.134666 0)
(10.7128 -0.134367 0)
(10.761 -0.119842 0)
(10.7539 -0.130524 0)
(10.8092 -0.108647 0)
(10.7999 -0.115295 0)
(10.8491 -0.106023 0)
(10.8536 -0.0895755 0)
(10.8837 -0.103576 0)
(10.9058 -0.0664779 0)
(10.9273 -0.0875793 0)
(10.9436 -0.0538084 0)
(10.9869 -0.0593526 0)
(10.973 -0.0406777 0)
(11.0462 -0.0333868 0)
(11.0166 -0.0159434 0)
(11.0896 -0.0119396 0)
(11.0779 0.0142372 0)
(11.1311 0.0154584 0)
(11.1356 0.0418865 0)
(11.1925 0.0528303 0)
(11.1853 0.068875 0)
(11.2646 0.0960069 0)
(11.2487 0.105217 0)
(11.3306 0.133382 0)
(11.3356 0.163855 0)
(11.399 0.161022 0)
(11.433 0.239597 0)
(11.4891 0.196195 0)
(11.532 0.315379 0)
(11.6087 0.25368 0)
(11.6389 0.385748 0)
(11.7566 0.346734 0)
(11.7654 0.4365 0)
(11.9335 0.487139 0)
(11.9268 0.506754 0)
(12.1261 0.605064 0)
(12.1615 0.669905 0)
(12.328 0.711623 0)
(12.459 0.859951 0)
(12.6257 0.926581 0)
(12.7496 1.05411 0)
(13.0441 1.21884 0)
(13.1652 1.40088 0)
(13.4582 1.60804 0)
(13.7034 1.92184 0)
(13.9867 2.28918 0)
(14.2 2.76923 0)
(14.44 3.36894 0)
(14.6027 4.12023 0)
(10.0074 -0.0260565 0)
(10.0092 -0.0708995 0)
(10.05 -0.0984424 0)
(10.0689 -0.118792 0)
(10.1123 -0.125226 0)
(10.1378 -0.132531 0)