/*--------------------------------*- C++ -*----------------------------------*\
| =========                 |                                                 |
| \\      /  F ield         | OpenFOAM: The Open Source CFD Toolbox           |
|  \\    /   O peration     | Version:  2306                                  |
|   \\  /    A nd           | Website:  www.openfoam.com                      |
|    \\/     M anipulation  |                                                 |
\*---------------------------------------------------------------------------*/
FoamFile
{
    version     2.0;
    format      ascii;
    arch        "LSB;label=32;scalar=64";
    class       volScalarField;
    location    "0.25";
    object      p;
}
// * * * * * * * * * * * * * * * * * * * * * * * * * * * * * * * * * * * * * //

dimensions      [0 2 -2 0 0 0 0];

internalField   nonuniform List<scalar> 
17600
(
304.2
302.156
300.379
299.148
298.385
297.878
297.461
297.053
296.636
296.212
295.792
295.38
294.976
294.579
294.188
293.801
293.42
293.048
292.686
292.34
292.012
291.704
291.42
291.161
290.928
290.721
290.538
290.379
290.241
290.123
290.02
289.93
289.852
289.781
289.716
289.655
289.596
289.539
289.481
289.423
289.364
289.304
289.241
289.178
289.112
289.045
288.977
288.907
288.837
288.766
288.694
288.622
288.549
288.477
288.405
288.333
288.261
288.19
288.12
288.05
287.981
287.913
287.846
287.78
287.715
287.651
287.588
287.527
287.467
287.408
287.35
287.294
287.24
287.187
287.135
287.085
287.037
286.991
286.946
286.903
286.862
286.823
286.786
286.751
286.718
286.688
286.66
286.634
286.611
286.591
286.573
286.558
286.546
286.538
286.532
286.53
286.531
286.536
286.544
286.556
286.572
286.593
286.617
286.646
286.679
286.717
286.76
286.807
286.86
286.917
286.98
287.048
287.121
287.2
287.284
287.373
287.468
287.568
287.673
287.783
287.898
288.018
288.143
288.271
288.404
288.54
288.679
288.821
288.965
289.11
289.256
289.402
289.547
289.692
289.834
289.974
290.11
290.243
290.371
290.494
290.612
290.725
290.831
290.93
291.022
291.108
291.187
291.259
291.325
291.385
291.438
291.486
291.528
291.564
291.596
291.623
291.646
291.666
291.683
291.696
301.471
300.701
299.774
298.91
298.22
297.697
297.277
296.895
296.515
296.126
295.732
295.338
294.948
294.563
294.184
293.81
293.442
293.083
292.734
292.399
292.08
291.781
291.503
291.247
291.016
290.808
290.624
290.462
290.32
290.196
290.089
289.994
289.91
289.833
289.763
289.697
289.634
289.572
289.511
289.45
289.388
289.325
289.261
289.196
289.129
289.06
288.991
288.92
288.849
288.777
288.705
288.632
288.559
288.486
288.414
288.341
288.27
288.198
288.127
288.058
287.988
287.92
287.853
287.787
287.722
287.658
287.595
287.533
287.473
287.414
287.356
287.3
287.246
287.192
287.141
287.091
287.043
286.996
286.951
286.908
286.867
286.828
286.791
286.756
286.724
286.693
286.665
286.64
286.617
286.596
286.579
286.564
286.552
286.543
286.538
286.536
286.537
286.542
286.551
286.563
286.579
286.6
286.625
286.654
286.688
286.726
286.769
286.817
286.87
286.928
286.991
287.06
287.134
287.213
287.297
287.388
287.483
287.584
287.69
287.801
287.917
288.038
288.164
288.293
288.427
288.564
288.704
288.846
288.991
289.136
289.283
289.429
289.574
289.718
289.859
289.998
290.134
290.265
290.392
290.514
290.631
290.742
290.847
290.946
291.037
291.122
291.2
291.271
291.336
291.394
291.446
291.493
291.533
291.569
291.599
291.626
291.648
291.667
291.683
291.696
300.166
299.817
299.288
298.675
298.083
297.569
297.137
296.756
296.396
296.034
295.667
295.294
294.923
294.555
294.193
293.837
293.488
293.147
292.817
292.499
292.195
291.908
291.639
291.39
291.161
290.953
290.766
290.598
290.449
290.316
290.198
290.093
289.998
289.911
289.831
289.757
289.685
289.616
289.548
289.481
289.414
289.346
289.278
289.209
289.14
289.07
288.999
288.927
288.855
288.783
288.71
288.636
288.563
288.49
288.417
288.345
288.273
288.201
288.131
288.061
287.991
287.923
287.856
287.789
287.724
287.66
287.597
287.535
287.474
287.415
287.357
287.301
287.246
287.192
287.14
287.09
287.041
286.994
286.949
286.906
286.864
286.825
286.787
286.752
286.719
286.688
286.659
286.633
286.609
286.588
286.57
286.555
286.542
286.533
286.527
286.524
286.524
286.529
286.536
286.548
286.564
286.583
286.607
286.635
286.668
286.705
286.747
286.794
286.847
286.904
286.966
287.034
287.107
287.185
287.269
287.359
287.453
287.554
287.66
287.771
287.887
288.008
288.134
288.264
288.398
288.536
288.677
288.821
288.968
289.116
289.264
289.413
289.562
289.709
289.854
289.997
290.136
290.271
290.401
290.526
290.644
290.756
290.862
290.96
291.05
291.134
291.211
291.282
291.346
291.405
291.457
291.504
291.544
291.578
291.608
291.633
291.654
291.672
291.687
291.7
299.263
299.071
298.738
298.302
297.827
297.371
296.96
296.592
296.249
295.912
295.572
295.227
294.879
294.533
294.191
293.854
293.525
293.204
292.892
292.591
292.303
292.029
291.77
291.528
291.304
291.098
290.91
290.739
290.584
290.445
290.318
290.204
290.1
290.004
289.915
289.831
289.751
289.674
289.599
289.525
289.452
289.38
289.307
289.235
289.162
289.09
289.016
288.943
288.869
288.795
288.721
288.647
288.573
288.499
288.425
288.352
288.279
288.207
288.136
288.065
287.996
287.927
287.859
287.792
287.726
287.661
287.598
287.535
287.474
287.414
287.356
287.299
287.243
287.189
287.136
287.085
287.036
286.988
286.942
286.898
286.855
286.815
286.776
286.74
286.706
286.674
286.644
286.616
286.592
286.569
286.55
286.533
286.519
286.508
286.5
286.496
286.494
286.497
286.502
286.512
286.525
286.543
286.564
286.59
286.621
286.655
286.695
286.739
286.789
286.843
286.902
286.967
287.037
287.113
287.194
287.28
287.372
287.47
287.573
287.681
287.795
287.914
288.038
288.166
288.299
288.436
288.577
288.722
288.868
289.018
289.168
289.32
289.472
289.624
289.774
289.922
290.068
290.21
290.347
290.48
290.607
290.728
290.842
290.948
291.047
291.138
291.22
291.294
291.359
291.417
291.468
291.512
291.551
291.586
291.616
291.642
291.663
291.68
291.694
291.707
298.576
298.452
298.224
297.907
297.535
297.15
296.78
296.434
296.109
295.793
295.477
295.157
294.833
294.509
294.187
293.869
293.558
293.255
292.96
292.674
292.399
292.137
291.888
291.653
291.434
291.23
291.042
290.869
290.711
290.566
290.433
290.312
290.2
290.095
289.998
289.906
289.818
289.734
289.652
289.573
289.494
289.417
289.34
289.264
289.188
289.112
289.037
288.961
288.885
288.809
288.734
288.658
288.583
288.508
288.434
288.36
288.286
288.214
288.142
288.07
288
287.93
287.862
287.794
287.728
287.662
287.598
287.535
287.473
287.412
287.353
287.295
287.239
287.183
287.13
287.078
287.027
286.978
286.931
286.885
286.842
286.8
286.76
286.722
286.686
286.652
286.621
286.592
286.565
286.54
286.519
286.5
286.483
286.47
286.46
286.452
286.448
286.447
286.45
286.456
286.466
286.48
286.498
286.52
286.546
286.577
286.612
286.652
286.696
286.746
286.8
286.859
286.924
286.994
287.069
287.15
287.236
287.327
287.424
287.527
287.634
287.747
287.865
287.988
288.116
288.248
288.384
288.524
288.667
288.814
288.962
289.113
289.264
289.417
289.569
289.721
289.872
290.021
290.167
290.309
290.448
290.582
290.71
290.831
290.946
291.052
291.151
291.241
291.322
291.394
291.458
291.513
291.559
291.595
291.624
291.647
291.667
291.684
291.7
291.715
298.029
297.939
297.772
297.535
297.243
296.923
296.598
296.281
295.977
295.68
295.385
295.087
294.785
294.481
294.178
293.879
293.585
293.297
293.016
292.744
292.482
292.23
291.989
291.761
291.547
291.346
291.159
290.985
290.824
290.675
290.537
290.409
290.291
290.179
290.075
289.976
289.882
289.791
289.704
289.619
289.535
289.453
289.373
289.293
289.214
289.135
289.057
288.979
288.901
288.823
288.746
288.669
288.593
288.517
288.442
288.367
288.293
288.219
288.147
288.075
288.003
287.933
287.864
287.796
287.728
287.662
287.597
287.533
287.47
287.409
287.349
287.29
287.232
287.176
287.121
287.068
287.016
286.965
286.917
286.87
286.824
286.781
286.739
286.7
286.662
286.626
286.592
286.561
286.532
286.505
286.48
286.459
286.439
286.423
286.409
286.398
286.391
286.386
286.385
286.387
286.393
286.402
286.415
286.432
286.452
286.477
286.506
286.54
286.578
286.62
286.667
286.719
286.776
286.838
286.905
286.977
287.054
287.137
287.224
287.317
287.415
287.518
287.625
287.738
287.856
287.978
288.105
288.235
288.37
288.508
288.649
288.792
288.938
289.086
289.236
289.386
289.537
289.687
289.837
289.985
290.131
290.275
290.416
290.552
290.684
290.81
290.931
291.045
291.152
291.25
291.339
291.419
291.488
291.548
291.597
291.638
291.669
291.691
291.706
291.718
297.58
297.512
297.384
297.198
296.965
296.699
296.416
296.131
295.849
295.571
295.294
295.016
294.734
294.449
294.165
293.882
293.603
293.329
293.062
292.802
292.55
292.308
292.075
291.854
291.644
291.446
291.26
291.085
290.923
290.771
290.629
290.496
290.372
290.256
290.145
290.041
289.941
289.845
289.752
289.662
289.574
289.488
289.404
289.32
289.238
289.157
289.076
288.996
288.916
288.837
288.758
288.68
288.603
288.526
288.449
288.374
288.299
288.224
288.151
288.078
288.006
287.935
287.865
287.796
287.728
287.661
287.595
287.53
287.466
287.404
287.343
287.283
287.224
287.166
287.11
287.056
287.002
286.951
286.9
286.852
286.805
286.759
286.716
286.674
286.634
286.596
286.56
286.526
286.494
286.465
286.438
286.413
286.39
286.37
286.353
286.338
286.326
286.318
286.312
286.309
286.31
286.313
286.321
286.332
286.346
286.364
286.387
286.413
286.443
286.478
286.516
286.559
286.607
286.659
286.716
286.777
286.844
286.914
286.99
287.071
287.156
287.246
287.34
287.44
287.543
287.652
287.764
287.881
288.001
288.125
288.253
288.384
288.518
288.654
288.793
288.935
289.078
289.222
289.368
289.514
289.661
289.808
289.954
290.1
290.244
290.386
290.525
290.66
290.792
290.918
291.039
291.152
291.258
291.354
291.441
291.516
291.58
291.632
291.674
291.706
297.206
297.151
297.049
296.899
296.708
296.484
296.239
295.984
295.725
295.466
295.206
294.945
294.681
294.414
294.146
293.879
293.614
293.354
293.098
292.849
292.607
292.374
292.148
291.933
291.727
291.532
291.347
291.173
291.009
290.855
290.71
290.574
290.446
290.324
290.209
290.099
289.995
289.894
289.797
289.702
289.61
289.521
289.433
289.347
289.261
289.177
289.094
289.012
288.931
288.85
288.77
288.69
288.611
288.533
288.456
288.379
288.303
288.228
288.154
288.08
288.008
287.936
287.865
287.795
287.726
287.658
287.592
287.526
287.461
287.398
287.335
287.274
287.214
287.156
287.098
287.042
286.987
286.934
286.882
286.832
286.783
286.736
286.69
286.647
286.604
286.564
286.526
286.489
286.455
286.422
286.392
286.363
286.337
286.314
286.293
286.274
286.258
286.245
286.234
286.226
286.221
286.219
286.221
286.225
286.233
286.244
286.259
286.277
286.299
286.325
286.355
286.388
286.426
286.467
286.513
286.563
286.617
286.675
286.737
286.804
286.875
286.95
287.029
287.112
287.2
287.291
287.387
287.486
287.589
287.695
287.805
287.918
288.035
288.154
288.277
288.402
288.53
288.661
288.794
288.93
289.068
289.208
289.35
289.494
289.641
289.788
289.937
290.086
290.235
290.383
290.531
290.675
290.816
290.952
291.081
291.203
291.315
291.416
291.505
291.58
296.889
296.844
296.759
296.635
296.475
296.284
296.07
295.842
295.605
295.365
295.122
294.877
294.628
294.377
294.125
293.872
293.62
293.371
293.127
292.888
292.655
292.429
292.21
292
291.799
291.606
291.423
291.25
291.085
290.93
290.782
290.643
290.511
290.386
290.267
290.153
290.044
289.939
289.838
289.74
289.644
289.551
289.46
289.371
289.283
289.197
289.112
289.027
288.944
288.862
288.78
288.699
288.619
288.54
288.462
288.384
288.307
288.231
288.156
288.082
288.008
287.936
287.864
287.793
287.724
287.655
287.587
287.52
287.455
287.39
287.327
287.264
287.203
287.143
287.085
287.027
286.971
286.916
286.863
286.811
286.76
286.711
286.663
286.617
286.573
286.53
286.489
286.45
286.413
286.377
286.343
286.312
286.282
286.255
286.23
286.207
286.187
286.168
286.153
286.14
286.129
286.122
286.117
286.115
286.116
286.12
286.127
286.137
286.15
286.167
286.187
286.211
286.238
286.268
286.302
286.34
286.381
286.426
286.474
286.526
286.582
286.641
286.704
286.77
286.84
286.913
286.99
287.07
287.153
287.239
287.328
287.421
287.516
287.614
287.716
287.82
287.928
288.039
288.153
288.27
288.391
288.516
288.644
288.777
288.914
289.055
289.201
289.351
289.506
289.665
289.827
289.992
290.159
290.327
290.495
290.66
290.82
290.975
291.12
291.253
296.62
296.582
296.51
296.404
296.266
296.101
295.912
295.708
295.492
295.27
295.042
294.812
294.578
294.341
294.101
293.861
293.622
293.384
293.149
292.919
292.694
292.475
292.263
292.058
291.86
291.67
291.489
291.316
291.151
290.995
290.846
290.704
290.57
290.441
290.319
290.201
290.089
289.98
289.876
289.774
289.676
289.579
289.486
289.394
289.304
289.215
289.128
289.042
288.957
288.873
288.79
288.708
288.627
288.546
288.467
288.388
288.31
288.234
288.158
288.082
288.008
287.935
287.862
287.791
287.72
287.65
287.582
287.514
287.447
287.382
287.317
287.254
287.191
287.13
287.07
287.011
286.953
286.897
286.842
286.788
286.736
286.685
286.635
286.587
286.54
286.495
286.451
286.409
286.369
286.33
286.294
286.259
286.225
286.194
286.165
286.138
286.113
286.09
286.069
286.051
286.035
286.021
286.01
286.002
285.996
285.992
285.991
285.993
285.998
286.006
286.016
286.029
286.046
286.065
286.087
286.112
286.14
286.172
286.206
286.243
286.283
286.326
286.372
286.42
286.472
286.526
286.583
286.642
286.704
286.769
286.836
286.906
286.978
287.053
287.131
287.211
287.295
287.381
287.472
287.565
287.663
287.766
287.873
287.986
288.105
288.23
288.362
288.501
288.648
288.803
288.966
289.137
289.316
289.502
289.694
289.891
290.09
290.291
290.489
290.681
296.389
296.357
296.294
296.202
296.082
295.936
295.768
295.584
295.387
295.18
294.968
294.751
294.529
294.305
294.077
293.849
293.62
293.392
293.167
292.945
292.727
292.514
292.307
292.106
291.912
291.725
291.546
291.374
291.209
291.052
290.902
290.758
290.621
290.49
290.365
290.244
290.129
290.017
289.91
289.805
289.704
289.605
289.509
289.414
289.322
289.231
289.142
289.054
288.968
288.882
288.798
288.715
288.633
288.551
288.471
288.391
288.313
288.235
288.158
288.082
288.007
287.932
287.859
287.787
287.715
287.644
287.575
287.506
287.439
287.372
287.306
287.242
287.178
287.115
287.054
286.994
286.935
286.877
286.82
286.764
286.71
286.657
286.605
286.555
286.505
286.458
286.412
286.367
286.324
286.282
286.242
286.204
286.167
286.132
286.099
286.067
286.038
286.01
285.984
285.96
285.939
285.919
285.902
285.886
285.873
285.862
285.854
285.847
285.843
285.842
285.842
285.845
285.851
285.859
285.869
285.882
285.897
285.914
285.934
285.956
285.98
286.007
286.035
286.066
286.099
286.133
286.17
286.209
286.249
286.291
286.336
286.382
286.43
286.48
286.532
286.587
286.644
286.704
286.767
286.834
286.905
286.981
287.062
287.149
287.243
287.344
287.454
287.572
287.701
287.841
287.991
288.154
288.33
288.518
288.718
288.93
289.152
289.383
289.62
289.86
296.193
296.164
296.109
296.027
295.92
295.79
295.639
295.471
295.29
295.098
294.899
294.694
294.484
294.27
294.054
293.835
293.616
293.397
293.179
292.965
292.753
292.546
292.344
292.147
291.957
291.772
291.594
291.423
291.259
291.101
290.95
290.805
290.666
290.533
290.405
290.283
290.164
290.05
289.94
289.833
289.729
289.628
289.529
289.433
289.338
289.246
289.155
289.066
288.978
288.891
288.805
288.721
288.637
288.555
288.474
288.393
288.314
288.235
288.157
288.08
288.004
287.929
287.855
287.782
287.709
287.638
287.567
287.498
287.429
287.361
287.294
287.228
287.164
287.1
287.037
286.975
286.915
286.855
286.796
286.739
286.683
286.628
286.574
286.521
286.47
286.42
286.371
286.323
286.277
286.232
286.189
286.147
286.107
286.068
286.03
285.995
285.96
285.928
285.897
285.868
285.84
285.815
285.791
285.769
285.749
285.73
285.714
285.699
285.686
285.675
285.666
285.659
285.654
285.65
285.649
285.649
285.651
285.654
285.66
285.667
285.675
285.685
285.696
285.709
285.723
285.738
285.754
285.772
285.79
285.81
285.83
285.852
285.875
285.9
285.926
285.953
285.983
286.014
286.049
286.087
286.128
286.174
286.225
286.283
286.347
286.419
286.5
286.591
286.694
286.809
286.938
287.082
287.241
287.417
287.61
287.821
288.048
288.292
288.55
288.821
296.026
296
295.951
295.877
295.781
295.662
295.525
295.371
295.203
295.024
294.836
294.642
294.442
294.238
294.031
293.821
293.61
293.399
293.189
292.98
292.775
292.572
292.375
292.182
291.994
291.812
291.635
291.465
291.301
291.143
290.991
290.845
290.705
290.57
290.441
290.316
290.195
290.079
289.966
289.857
289.751
289.648
289.547
289.449
289.353
289.259
289.166
289.075
288.986
288.898
288.811
288.726
288.641
288.558
288.475
288.394
288.314
288.234
288.156
288.078
288.001
287.925
287.85
287.776
287.703
287.63
287.559
287.488
287.418
287.349
287.281
287.214
287.148
287.083
287.019
286.956
286.893
286.832
286.772
286.713
286.655
286.597
286.541
286.487
286.433
286.38
286.329
286.278
286.229
286.181
286.135
286.089
286.045
286.002
285.961
285.921
285.882
285.844
285.808
285.774
285.741
285.709
285.679
285.65
285.623
285.597
285.572
285.549
285.528
285.508
285.489
285.471
285.455
285.441
285.427
285.415
285.403
285.393
285.384
285.376
285.368
285.361
285.355
285.35
285.345
285.34
285.336
285.332
285.328
285.325
285.322
285.319
285.317
285.315
285.313
285.313
285.314
285.316
285.32
285.327
285.337
285.351
285.37
285.395
285.426
285.465
285.514
285.573
285.644
285.729
285.828
285.944
286.079
286.232
286.407
286.602
286.82
287.061
287.323
287.606
295.885
295.862
295.816
295.749
295.661
295.553
295.426
295.283
295.126
294.958
294.781
294.596
294.405
294.209
294.01
293.808
293.604
293.399
293.195
292.992
292.792
292.594
292.4
292.21
292.025
291.844
291.67
291.5
291.337
291.179
291.026
290.88
290.738
290.602
290.471
290.344
290.222
290.104
289.989
289.878
289.77
289.665
289.563
289.463
289.365
289.269
289.175
289.083
288.993
288.903
288.816
288.729
288.644
288.559
288.476
288.394
288.313
288.232
288.153
288.074
287.997
287.92
287.844
287.769
287.695
287.621
287.549
287.477
287.407
287.337
287.267
287.199
287.132
287.065
287
286.935
286.871
286.808
286.747
286.685
286.625
286.566
286.508
286.451
286.395
286.34
286.285
286.232
286.18
286.129
286.079
286.03
285.982
285.936
285.89
285.845
285.802
285.76
285.719
285.679
285.64
285.602
285.565
285.53
285.495
285.462
285.43
285.398
285.368
285.339
285.31
285.282
285.256
285.229
285.204
285.179
285.155
285.131
285.107
285.083
285.06
285.037
285.013
284.99
284.966
284.941
284.916
284.891
284.865
284.838
284.811
284.783
284.754
284.725
284.696
284.667
284.638
284.61
284.583
284.557
284.534
284.515
284.499
284.489
284.485
284.488
284.501
284.524
284.559
284.608
284.673
284.756
284.858
284.982
285.129
285.3
285.498
285.722
285.975
286.255
295.768
295.747
295.705
295.643
295.561
295.46
295.342
295.208
295.06
294.901
294.732
294.555
294.372
294.183
293.991
293.795
293.597
293.398
293.199
293.001
292.805
292.611
292.42
292.233
292.05
291.871
291.698
291.529
291.366
291.208
291.056
290.908
290.766
290.629
290.496
290.368
290.244
290.124
290.008
289.895
289.786
289.679
289.576
289.474
289.375
289.278
289.183
289.09
288.998
288.908
288.819
288.731
288.645
288.56
288.476
288.393
288.311
288.229
288.149
288.07
287.991
287.914
287.837
287.761
287.686
287.612
287.538
287.466
287.394
287.323
287.253
287.183
287.115
287.047
286.98
286.914
286.848
286.784
286.72
286.657
286.595
286.534
286.474
286.414
286.356
286.298
286.241
286.185
286.13
286.076
286.022
285.97
285.918
285.868
285.818
285.769
285.721
285.674
285.628
285.582
285.538
285.494
285.451
285.409
285.367
285.326
285.286
285.246
285.207
285.169
285.13
285.093
285.055
285.017
284.98
284.943
284.905
284.868
284.829
284.791
284.752
284.712
284.671
284.629
284.586
284.542
284.496
284.449
284.4
284.35
284.298
284.245
284.19
284.133
284.075
284.017
283.957
283.897
283.837
283.778
283.721
283.666
283.614
283.566
283.524
283.489
283.462
283.446
283.442
283.452
283.478
283.523
283.588
283.675
283.788
283.928
284.097
284.297
284.529
284.795
295.673
295.653
295.614
295.555
295.479
295.384
295.272
295.145
295.005
294.853
294.691
294.521
294.344
294.161
293.974
293.784
293.591
293.397
293.202
293.008
292.815
292.624
292.436
292.251
292.07
291.893
291.72
291.553
291.39
291.232
291.079
290.931
290.788
290.65
290.516
290.387
290.262
290.141
290.024
289.91
289.799
289.691
289.586
289.483
289.383
289.285
289.188
289.094
289.001
288.91
288.82
288.732
288.645
288.559
288.474
288.39
288.307
288.225
288.145
288.064
287.985
287.907
287.829
287.753
287.677
287.601
287.527
287.453
287.381
287.308
287.237
287.166
287.097
287.027
286.959
286.891
286.824
286.758
286.693
286.628
286.564
286.501
286.439
286.377
286.316
286.256
286.196
286.137
286.079
286.022
285.965
285.909
285.854
285.799
285.745
285.692
285.639
285.587
285.536
285.485
285.435
285.385
285.336
285.287
285.238
285.19
285.142
285.094
285.046
284.998
284.95
284.902
284.854
284.805
284.756
284.706
284.656
284.604
284.552
284.498
284.443
284.386
284.328
284.268
284.206
284.142
284.075
284.006
283.935
283.861
283.784
283.705
283.623
283.538
283.451
283.362
283.271
283.178
283.085
282.991
282.897
282.804
282.714
282.627
282.544
282.468
282.4
282.341
282.294
282.261
282.245
282.246
282.27
282.316
282.39
282.492
282.626
282.795
282.999
283.242
295.599
295.579
295.542
295.487
295.414
295.323
295.217
295.095
294.96
294.814
294.658
294.493
294.321
294.143
293.96
293.774
293.585
293.395
293.203
293.012
292.822
292.634
292.448
292.265
292.085
291.909
291.738
291.571
291.408
291.25
291.097
290.949
290.805
290.667
290.532
290.402
290.276
290.154
290.035
289.92
289.808
289.699
289.593
289.489
289.388
289.289
289.192
289.097
289.003
288.911
288.821
288.731
288.644
288.557
288.471
288.387
288.303
288.221
288.139
288.058
287.978
287.899
287.821
287.743
287.666
287.59
287.515
287.44
287.366
287.293
287.221
287.149
287.078
287.007
286.937
286.868
286.8
286.732
286.665
286.598
286.532
286.467
286.403
286.339
286.275
286.212
286.15
286.089
286.027
285.967
285.907
285.847
285.789
285.73
285.672
285.614
285.557
285.5
285.444
285.388
285.332
285.276
285.22
285.164
285.109
285.053
284.997
284.941
284.885
284.828
284.77
284.712
284.653
284.593
284.532
284.47
284.407
284.342
284.275
284.206
284.135
284.062
283.986
283.908
283.827
283.742
283.655
283.564
283.47
283.371
283.27
283.164
283.054
282.941
282.824
282.704
282.58
282.454
282.325
282.195
282.063
281.931
281.8
281.671
281.546
281.426
281.313
281.208
281.115
281.035
280.971
280.926
280.903
280.904
280.933
280.993
281.087
281.218
281.388
281.601
295.544
295.525
295.489
295.436
295.365
295.278
295.175
295.058
294.927
294.785
294.633
294.472
294.303
294.129
293.95
293.766
293.58
293.393
293.204
293.015
292.827
292.641
292.456
292.275
292.096
291.921
291.75
291.583
291.421
291.263
291.11
290.962
290.818
290.678
290.543
290.412
290.286
290.163
290.043
289.927
289.815
289.705
289.598
289.493
289.391
289.291
289.193
289.097
289.003
288.91
288.819
288.729
288.641
288.553
288.467
288.382
288.298
288.215
288.132
288.051
287.97
287.89
287.811
287.733
287.655
287.578
287.502
287.426
287.351
287.277
287.203
287.13
287.058
286.986
286.915
286.844
286.774
286.705
286.636
286.568
286.5
286.433
286.366
286.3
286.234
286.169
286.104
286.039
285.975
285.912
285.848
285.785
285.723
285.66
285.598
285.536
285.474
285.413
285.351
285.29
285.228
285.166
285.104
285.042
284.979
284.916
284.853
284.788
284.723
284.657
284.59
284.522
284.453
284.382
284.309
284.235
284.158
284.08
283.999
283.915
283.828
283.739
283.646
283.549
283.449
283.344
283.236
283.123
283.005
282.883
282.756
282.623
282.486
282.343
282.196
282.043
281.886
281.725
281.56
281.391
281.22
281.047
280.873
280.7
280.529
280.362
280.2
280.047
279.903
279.772
279.657
279.56
279.486
279.436
279.416
279.428
279.476
279.564
279.695
279.872
295.507
295.489
295.454
295.402
295.333
295.248
295.148
295.033
294.905
294.765
294.616
294.457
294.291
294.119
293.942
293.761
293.577
293.391
293.204
293.017
292.83
292.645
292.461
292.28
292.103
291.928
291.758
291.591
291.429
291.271
291.118
290.969
290.825
290.685
290.55
290.419
290.291
290.168
290.048
289.931
289.818
289.707
289.6
289.495
289.392
289.291
289.193
289.096
289.001
288.908
288.816
288.726
288.637
288.549
288.462
288.376
288.291
288.208
288.125
288.042
287.961
287.88
287.801
287.721
287.643
287.565
287.488
287.411
287.335
287.26
287.185
287.111
287.038
286.965
286.892
286.82
286.748
286.677
286.607
286.537
286.467
286.398
286.329
286.26
286.192
286.124
286.057
285.989
285.923
285.856
285.789
285.723
285.657
285.59
285.524
285.458
285.392
285.325
285.258
285.192
285.124
285.057
284.988
284.92
284.85
284.78
284.709
284.636
284.563
284.488
284.411
284.333
284.253
284.172
284.087
284.001
283.912
283.819
283.724
283.626
283.523
283.417
283.307
283.192
283.073
282.948
282.819
282.684
282.543
282.396
282.243
282.083
281.918
281.745
281.567
281.381
281.19
280.992
280.789
280.581
280.368
280.152
279.933
279.714
279.494
279.276
279.063
278.856
278.657
278.471
278.299
278.146
278.015
277.91
277.834
277.793
277.789
277.828
277.913
278.049
295.489
295.471
295.436
295.385
295.317
295.233
295.133
295.02
294.893
294.755
294.607
294.45
294.285
294.114
293.938
293.758
293.575
293.39
293.204
293.017
292.831
292.646
292.463
292.283
292.105
291.931
291.761
291.595
291.432
291.275
291.121
290.972
290.828
290.688
290.552
290.42
290.293
290.169
290.048
289.931
289.818
289.707
289.599
289.493
289.39
289.289
289.19
289.093
288.998
288.904
288.812
288.721
288.631
288.543
288.456
288.369
288.284
288.2
288.116
288.033
287.951
287.87
287.789
287.709
287.63
287.551
287.473
287.396
287.319
287.243
287.167
287.092
287.017
286.942
286.868
286.795
286.722
286.649
286.577
286.505
286.433
286.362
286.291
286.22
286.15
286.08
286.009
285.939
285.87
285.8
285.73
285.66
285.59
285.52
285.45
285.379
285.309
285.238
285.166
285.094
285.021
284.947
284.873
284.798
284.722
284.644
284.565
284.485
284.403
284.319
284.234
284.146
284.056
283.963
283.867
283.769
283.667
283.561
283.452
283.339
283.221
283.098
282.971
282.838
282.7
282.555
282.405
282.247
282.083
281.911
281.732
281.546
281.351
281.149
280.938
280.719
280.492
280.257
280.015
279.766
279.51
279.248
278.982
278.712
278.441
278.169
277.9
277.635
277.378
277.131
276.897
276.682
276.488
276.32
276.183
276.081
276.02
276.003
276.036
276.124
295.488
295.471
295.436
295.385
295.317
295.232
295.133
295.019
294.893
294.754
294.606
294.449
294.284
294.113
293.937
293.757
293.574
293.389
293.203
293.016
292.83
292.645
292.462
292.282
292.104
291.93
291.76
291.593
291.431
291.273
291.12
290.971
290.826
290.686
290.55
290.418
290.29
290.166
290.046
289.928
289.814
289.703
289.595
289.489
289.386
289.285
289.186
289.088
288.993
288.899
288.806
288.715
288.625
288.536
288.448
288.361
288.276
288.191
288.106
288.023
287.94
287.858
287.777
287.697
287.617
287.537
287.458
287.38
287.302
287.225
287.148
287.071
286.995
286.919
286.844
286.769
286.695
286.621
286.547
286.473
286.399
286.326
286.253
286.18
286.107
286.035
285.962
285.889
285.816
285.743
285.67
285.597
285.524
285.45
285.376
285.301
285.226
285.15
285.074
284.996
284.918
284.839
284.758
284.677
284.594
284.509
284.423
284.335
284.245
284.152
284.057
283.96
283.86
283.756
283.649
283.539
283.424
283.306
283.183
283.055
282.922
282.783
282.638
282.488
282.33
282.166
281.994
281.815
281.627
281.431
281.225
281.011
280.788
280.554
280.311
280.058
279.794
279.521
279.238
278.946
278.645
278.336
278.02
277.698
277.371
277.042
276.713
276.385
276.064
275.75
275.449
275.164
274.901
274.663
274.457
274.288
274.16
274.081
274.055
274.089
295.506
295.488
295.453
295.401
295.332
295.247
295.146
295.031
294.903
294.764
294.614
294.455
294.289
294.117
293.94
293.759
293.575
293.389
293.201
293.014
292.827
292.642
292.458
292.277
292.099
291.925
291.754
291.587
291.425
291.267
291.113
290.964
290.819
290.679
290.543
290.411
290.284
290.16
290.039
289.922
289.808
289.697
289.589
289.483
289.38
289.278
289.179
289.082
288.986
288.891
288.799
288.707
288.617
288.528
288.44
288.352
288.266
288.181
288.096
288.012
287.929
287.846
287.764
287.683
287.602
287.522
287.442
287.363
287.284
287.206
287.128
287.05
286.973
286.896
286.82
286.743
286.667
286.591
286.516
286.44
286.365
286.29
286.215
286.14
286.065
285.989
285.914
285.839
285.763
285.687
285.611
285.535
285.458
285.38
285.302
285.223
285.144
285.063
284.982
284.9
284.816
284.731
284.645
284.557
284.467
284.376
284.282
284.186
284.088
283.987
283.883
283.776
283.666
283.552
283.434
283.312
283.185
283.054
282.917
282.775
282.626
282.472
282.31
282.142
281.965
281.781
281.588
281.387
281.176
280.955
280.723
280.481
280.228
279.964
279.687
279.399
279.099
278.786
278.461
278.125
277.777
277.418
277.049
276.671
276.286
275.895
275.501
275.107
274.715
274.329
273.953
273.592
273.251
272.936
272.652
272.406
272.204
272.053
271.96
271.93
295.541
295.523
295.487
295.434
295.363
295.276
295.173
295.055
294.924
294.782
294.63
294.469
294.3
294.126
293.946
293.763
293.577
293.389
293.2
293.011
292.823
292.636
292.451
292.269
292.09
291.915
291.743
291.576
291.414
291.255
291.102
290.953
290.808
290.668
290.532
290.401
290.273
290.149
290.029
289.912
289.799
289.688
289.58
289.474
289.371
289.27
289.17
289.073
288.977
288.883
288.79
288.698
288.608
288.518
288.43
288.342
288.256
288.17
288.085
288
287.917
287.833
287.751
287.669
287.587
287.506
287.426
287.346
287.266
287.187
287.108
287.029
286.951
286.872
286.795
286.717
286.639
286.562
286.485
286.408
286.331
286.253
286.176
286.099
286.022
285.944
285.866
285.788
285.71
285.631
285.552
285.472
285.392
285.31
285.229
285.146
285.062
284.977
284.891
284.804
284.715
284.624
284.532
284.438
284.342
284.244
284.143
284.04
283.933
283.824
283.711
283.595
283.475
283.351
283.222
283.088
282.949
282.805
282.655
282.499
282.335
282.165
281.987
281.801
281.606
281.402
281.188
280.965
280.73
280.485
280.227
279.957
279.674
279.378
279.069
278.745
278.406
278.053
277.685
277.303
276.906
276.495
276.071
275.634
275.187
274.731
274.267
273.8
273.331
272.866
272.408
271.962
271.535
271.132
270.761
270.428
270.142
269.909
269.738
269.637
295.596
295.576
295.539
295.484
295.41
295.32
295.213
295.092
294.957
294.81
294.654
294.489
294.317
294.138
293.956
293.769