/*--------------------------------*- C++ -*----------------------------------*\
| =========                 |                                                 |
| \\      /  F ield         | OpenFOAM: The Open Source CFD Toolbox           |
|  \\    /   O peration     | Version:  2306                                  |
|   \\  /    A nd           | Website:  www.openfoam.com                      |
|    \\/     M anipulation  |                                                 |
\*---------------------------------------------------------------------------*/
FoamFile
{
    version     2.0;
    format      ascii;
    arch        "LSB;label=32;scalar=64";
    class       surfaceScalarField;
    location    "0.25";
    object      phi;
}
// * * * * * * * * * * * * * * * * * * * * * * * * * * * * * * * * * * * * * //

dimensions      [0 3 -1 0 0 0 0];

oriented        oriented;

internalField   nonuniform List<scalar> 
34640
(
0.0049244
7.55987e-05
0.00478599
0.000138414
0.00463052
0.000155467
0.00447385
0.000156669
0.00431583
0.000158023
0.00415467
0.000161162
0.00399075
0.000163921
0.00382542
0.00016533
0.00366031
0.000165105
0.00349681
0.000163498
0.00333583
0.000160982
0.00317796
0.000157867
0.00302374
0.000154218
0.00287375
0.000149993
0.00272861
0.000145137
0.00258898
0.000139632
0.00245554
0.000133442
0.00232889
0.000126651
0.0022094
0.000119492
0.00209746
0.00011194
0.00199338
0.000104076
0.00189737
9.60105e-05
0.00180951
8.78661e-05
0.00172973
7.97717e-05
0.00165788
7.18546e-05
0.00159365
6.42341e-05
0.00153663
5.70144e-05
0.00148635
5.02806e-05
0.00144226
4.40949e-05
0.00140376
3.8497e-05
0.00137026
3.35034e-05
0.00134114
2.91113e-05
0.00131584
2.53001e-05
0.00129381
2.20373e-05
0.00127453
1.928e-05
0.00125755
1.69803e-05
0.00124246
1.50829e-05
0.00122894
1.35243e-05
0.00121668
1.22545e-05
0.00120545
1.12334e-05
0.00119503
1.04239e-05
0.00118524
9.79084e-06
0.00117593
9.30148e-06
0.00116701
8.9268e-06
0.00115837
8.642e-06
0.00114994
8.42648e-06
0.00114168
8.26341e-06
0.00113354
8.13923e-06
0.00112549
8.0431e-06
0.00111753
7.96649e-06
0.00110962
7.90283e-06
0.00110178
7.84719e-06
0.00109398
7.79595e-06
0.00108623
7.74663e-06
0.00107854
7.69758e-06
0.00107089
7.64786e-06
0.00106329
7.59702e-06
0.00105575
7.54502e-06
0.00104826
7.49208e-06
0.00104082
7.43865e-06
0.00103343
7.38528e-06
0.0010261
7.33263e-06
0.00101882
7.28139e-06
0.00101159
7.23228e-06
0.0010044
7.186e-06
0.000997256
7.14324e-06
0.000990151
7.10468e-06
0.00098308
7.07093e-06
0.000976038
7.04259e-06
0.000969017
7.0202e-06
0.000962013
7.00427e-06
0.000955018
6.99525e-06
0.000948024
6.99357e-06
0.000941025
6.99965e-06
0.000934011
7.01391e-06
0.000926974
7.03679e-06
0.000919905
7.06866e-06
0.000912795
7.10991e-06
0.000905634
7.16092e-06
0.000898412
7.22205e-06
0.000891119
7.29367e-06
0.000883743
7.37615e-06
0.000876273
7.46987e-06
0.000868698
7.57519e-06
0.000861005
7.69252e-06
0.000853183
7.82223e-06
0.000845218
7.96474e-06
0.000837098
8.12043e-06
0.000828808
8.28973e-06
0.000820335
8.47305e-06
0.000811664
8.6708e-06
0.000802781
8.88339e-06
0.000793669
9.11122e-06
0.000784315
9.3547e-06
0.000774701
9.6142e-06
0.000764811
9.89008e-06
0.000754628
1.01827e-05
0.000744136
1.04922e-05
0.000733317
1.0819e-05
0.000722154
1.11631e-05
0.000710629
1.15247e-05
0.000698725
1.19037e-05
0.000686425
1.23e-05
0.000673712
1.27132e-05
0.000660569
1.31429e-05
0.00064698
1.35888e-05
0.00063293
1.405e-05
0.000618405
1.45253e-05
0.000603391
1.50136e-05
0.000587878
1.5513e-05
0.000571857
1.60216e-05
0.00055532
1.65371e-05
0.000538263
1.70568e-05
0.000520686
1.75772e-05
0.000502591
1.80946e-05
0.000483986
1.86047e-05
0.000464884
1.91024e-05
0.000445301
1.95825e-05
0.000425263
2.00389e-05
0.000404798
2.04649e-05
0.000383944
2.08536e-05
0.000362747
2.11975e-05
0.000341258
2.14888e-05
0.000319538
2.17197e-05
0.000297656
2.18823e-05
0.000275687
2.19692e-05
0.000253713
2.19734e-05
0.000231824
2.18892e-05
0.000210112
2.17117e-05
0.000188675
2.14376e-05
0.000167609
2.10653e-05
0.000147015
2.05946e-05
0.000126988
2.00266e-05
0.000107625
1.93633e-05
8.90177e-05
1.8607e-05
7.12586e-05
1.77592e-05
5.44385e-05
1.68201e-05
3.86485e-05
1.57899e-05
2.39768e-05
1.46717e-05
1.05026e-05
1.34742e-05
-1.71686e-06
1.22195e-05
-1.26633e-05
1.09464e-05
-2.23482e-05
9.68491e-06
-3.08323e-05
8.48408e-06
-3.82017e-05
7.36941e-06
-4.45355e-05
6.3337e-06
-4.98777e-05
5.34226e-06
-5.42338e-05
4.35607e-06
-5.75942e-05
3.36034e-06
-5.99907e-05
2.39653e-06
-6.15453e-05
1.55462e-06
-6.24465e-05
9.01146e-07
-6.28636e-05
4.17116e-07
-6.28664e-05
2.79129e-09
-6.24788e-05
-3.87642e-07
-6.17179e-05
-7.60887e-07
-6.05452e-05
-1.17275e-06
-5.87385e-05
-1.80661e-06
-5.59773e-05
-2.7613e-06
-3.81373e-06
-5.21635e-05
0.00503752
3.80749e-05
0.0050774
9.85349e-05
0.00509715
0.00013572
0.00510102
0.000152795
0.00509795
0.000161096
0.00509063
0.000168478
0.0050778
0.000176757
0.00505833
0.000184798
0.00503218
0.00019126
0.005
0.000195672
0.00496268
0.000198302
0.00492096
0.000199592
0.00487536
0.00019981
0.00482631
0.000199043
0.00477418
0.000197274
0.00471935
0.00019446
0.0046622
0.000190595
0.0046031
0.000185745
0.00454258
0.00018001
0.00448106
0.000173466
0.00441893
0.000166202
0.0043566
0.00015834
0.00429445
0.000150022
0.00423281
0.000141405
0.00417202
0.000132648
0.00411235
0.000123906
0.00405404
0.000115325
0.00399729
0.00010703
0.00394225
9.91292e-05
0.00388905
9.17036e-05
0.00383774
8.48095e-05
0.00378837
7.84815e-05
0.00374094
7.273e-05
0.00369543
6.75502e-05
0.00365179
6.29198e-05
0.00360995
5.88181e-05
0.00356978
5.52508e-05
0.00353125
5.20564e-05
0.00349428
4.92281e-05
0.00345877
4.67416e-05
0.00342463
4.45592e-05
0.00339178
4.2643e-05
0.00336012
4.09573e-05
0.00332958
3.9469e-05
0.00330008
3.81487e-05
0.00327153
3.69706e-05
0.00324388
3.59127e-05
0.00321707
3.4956e-05
0.00319102
3.40844e-05
0.00316571
3.32848e-05
0.00314106
3.25458e-05
0.00311705
3.18586e-05
0.00309363
3.12158e-05
0.00307077
3.06116e-05
0.00304842
3.00415e-05
0.00302657
2.9502e-05
0.00300518
2.89904e-05
0.00298422
2.85049e-05
0.00296366
2.80439e-05
0.0029435
2.76067e-05
0.00292369
2.71925e-05
0.00290422
2.68011e-05
0.00288507
2.64323e-05
0.00286622
2.60862e-05
0.00284764
2.57631e-05
0.00282932
2.54631e-05
0.00281124
2.51867e-05
0.00279337
2.49342e-05
0.00277571
2.47063e-05
0.00275823
2.45032e-05
0.00274091
2.43257e-05
0.00272373
2.41739e-05
0.00270667
2.40485e-05
0.00268972
2.39502e-05
0.00267286
2.38795e-05
0.00265605
2.38372e-05
0.0026393
2.3824e-05
0.00262257
2.38407e-05
0.00260584
2.38881e-05
0.0025891
2.3967e-05
0.00257231
2.40784e-05
0.00255547
2.42232e-05
0.00253853
2.44024e-05
0.00252149
2.46172e-05
0.00250431
2.48685e-05
0.00248698
2.51578e-05
0.00246946
2.54861e-05
0.00245172
2.58549e-05
0.00243375
2.62655e-05
0.0024155
2.67194e-05
0.00239695
2.72182e-05
0.00237807
2.77635e-05
0.00235883
2.83568e-05
0.00233918
2.89999e-05
0.0023191
2.96946e-05
0.00229855
3.04426e-05
0.00227749
3.12458e-05
0.00225587
3.2106e-05
0.00223367
3.30249e-05
0.00221083
3.40044e-05
0.0021873
3.50463e-05
0.00216306
3.61521e-05
0.00213803
3.73235e-05
0.00211218
3.85615e-05
0.00208546
3.98665e-05
0.00205781
4.12411e-05
0.00202917
4.26857e-05
0.0019995
4.42003e-05
0.00196873
4.57845e-05
0.0019368
4.74378e-05
0.00190366
4.91593e-05
0.00186925
5.09471e-05
0.00183351
5.27982e-05
0.00179638
5.47088e-05
0.0017578
5.66738e-05
0.00171772
5.86868e-05
0.00167608
6.07401e-05
0.00163284
6.28244e-05
0.00158795
6.49284e-05
0.00154138
6.7039e-05
0.00149309
6.91408e-05
0.00144307
7.1216e-05
0.00139131
7.32444e-05
0.00133783
7.52028e-05
0.00128265
7.70656e-05
0.00122581
7.88039e-05
0.0011674
8.03859e-05
0.00110751
8.17773e-05
0.00104628
8.29405e-05
0.000983886
8.38359e-05
0.000920529
8.44219e-05
0.000856468
8.46561e-05
0.000791998
8.44964e-05
0.000727459
8.39026e-05
0.000663226
8.28395e-05
0.000599707
8.1278e-05
0.000537327
7.92e-05
0.000476516
7.66017e-05
0.000417688
7.34998e-05
0.000361229
6.99328e-05
0.000307482
6.59659e-05
0.000256741
6.16882e-05
0.000209232
5.71935e-05
0.000165136
5.25802e-05
0.000124581
4.79241e-05
8.76398e-05
4.3275e-05
5.4291e-05
3.86911e-05
2.45694e-05
3.40776e-05
-1.51575e-06
2.94455e-05
-2.41132e-05
2.49939e-05
-4.3521e-05
2.09625e-05
-6.01091e-05
1.74892e-05
-7.40822e-05
1.43902e-05
-8.55838e-05
1.15044e-05
-9.47693e-05
8.79787e-06
-0.000101838
6.30749e-06
-0.000106927
3.91668e-06
-0.00010996
1.22645e-06
-0.000110759
-1.96282e-06
-5.06219e-06
-0.00010951
0.00501445
2.36272e-05
0.00504447
6.85095e-05
0.00507418
0.000106011
0.00509859
0.000128388
0.00511781
0.000141877
0.00513503
0.000151254
0.00515196
0.000159828
0.00516818
0.000168576
0.00518272
0.000176724
0.00519492
0.000183473
0.00520465
0.000188573
0.00521208
0.000192159
0.0052174
0.000194496
0.00522065
0.000195785
0.00522182
0.000196103
0.00522084
0.000195445
0.00521764
0.000193796
0.00521222
0.000191161
0.00520466
0.000187568
0.00519502
0.000183109
0.00518337
0.000177856
0.0051698
0.000171906
0.00515444
0.000165378
0.00513744
0.000158406
0.00511896
0.000151131
0.00509917
0.000143696
0.00507826
0.000136237
0.00505641
0.000128882
0.0050338
0.00012174
0.00501059
0.000114905
0.00498696
0.000108447
0.00496302
0.000102415
0.00493891
9.68402e-05
0.00491473
9.17361e-05
0.00489055
8.71021e-05
0.00486644
8.29278e-05
0.0048425
7.91861e-05
0.00481873
7.58223e-05
0.00479516
7.28023e-05
0.0047718
7.01012e-05
0.00474867
6.76919e-05
0.00472577
6.55438e-05
0.0047031
6.36259e-05
0.00468066
6.19082e-05
0.00465844
6.03636e-05
0.00463645
5.89674e-05
0.00461466
5.76983e-05
0.00459308
5.65378e-05
0.00457169
5.54699e-05
0.0045505
5.44812e-05
0.00452948
5.35602e-05
0.00450864
5.26978e-05
0.00448797
5.18862e-05
0.00446747
5.11194e-05
0.00444712
5.03924e-05
0.00442692
4.97016e-05
0.00440686
4.90442e-05
0.00438695
4.84182e-05
0.00436717
4.78221e-05
0.00434752
4.7255e-05
0.004328
4.67166e-05
0.00430859
4.62066e-05
0.0042893
4.57253e-05
0.00427011
4.5273e-05
0.00425103
4.48503e-05
0.00423203
4.4458e-05
0.00421312
4.40967e-05
0.00419429
4.37675e-05
0.00417552
4.34714e-05
0.00415682
4.32095e-05
0.00413816
4.29832e-05
0.00411954
4.27928e-05
0.00410095
4.26398e-05
0.00408237
4.25256e-05
0.0040638
4.24516e-05
0.00404522
4.24191e-05
0.00402661
4.24298e-05
0.00400797
4.24853e-05
0.00398927
4.25872e-05
0.0039705
4.27372e-05
0.00395164
4.29373e-05
0.00393267
4.31893e-05
0.00391358
4.34954e-05
0.00389434
4.38577e-05
0.00387493
4.42785e-05
0.00385533
4.47601e-05
0.00383551
4.53053e-05
0.00381545
4.59165e-05
0.00379512
4.65967e-05
0.00377449
4.73488e-05
0.00375353
4.8176e-05
0.00373221
4.90814e-05
0.0037105
5.00684e-05
0.00368836
5.11408e-05
0.00366575
5.2302e-05
0.00364264
5.35561e-05
0.00361898
5.4907e-05
0.00359472
5.63587e-05
0.00356983
5.79156e-05
0.00354426
5.9582e-05
0.00351794
6.13622e-05
0.00349083
6.32608e-05
0.00346287
6.52821e-05
0.003434
6.74303e-05
0.00340416
6.97098e-05
0.00337328
7.21255e-05
0.00334128
7.46813e-05
0.0033081
7.73815e-05
0.00327366
8.02287e-05
0.00323787
8.32257e-05
0.00320065
8.63766e-05
0.00316191
8.96829e-05
0.00312157
9.31454e-05
0.00307951
9.67642e-05
0.00303565
0.000100538
0.00298987
0.000104464
0.00294207
0.000108538
0.00289214
0.000112753
0.00283997
0.0001171
0.00278544
0.000121569
0.00272844
0.000126144
0.00266885
0.000130808
0.00260655
0.00013554
0.00254144
0.000140312
0.00247341
0.000145093
0.00240237
0.000149848
0.00232822
0.000154534
0.0022509
0.000159101
0.00217035
0.000163493
0.00208653
0.000167648
0.00199946
0.000171492
0.00190917
0.000174946
0.00181575
0.000177923
0.00171932
0.000180331
0.00162009
0.000182073
0.00151832
0.000183046
0.00141438
0.000183142
0.00130872
0.000182258
0.00120192
0.000180296
0.00109469
0.00017717
0.000987839
0.000172814
0.000882336
0.000167191
0.000779231
0.000160299
0.000679631
0.00015218
0.00058462
0.000142935
0.000495169
0.000132726
0.000412088
0.000121772
0.000335799
0.000110367
0.00026637
9.88741e-05
0.0002037
8.76642e-05
0.000147644
7.70183e-05
9.80482e-05
6.70851e-05
5.45609e-05
5.78774e-05
1.70929e-05
4.89724e-05
-1.48261e-05
4.07169e-05
-4.17756e-05
3.32569e-05
-6.43716e-05
2.65126e-05
-8.28294e-05
1.96843e-05
-9.72707e-05
1.24785e-05
5.64234e-06
-0.000107975
0.00500634
1.72885e-05
0.00502385
5.09993e-05
0.00504705
8.28147e-05
0.00506939
0.000106044
0.00508908
0.000122188
0.00510685
0.000133478
0.00512443
0.00014225
0.00514265
0.000150364
0.00516108
0.000158286
0.00517925
0.000165304
0.00519682
0.000171004
0.00521368
0.000175303
0.00522985
0.000178326
0.00524536
0.000180272
0.00526017
0.000181295
0.00527417
0.00018144
0.00528725
0.000180716
0.00529929
0.000179123
0.00531018
0.000176684
0.00531983
0.000173454
0.00532819
0.000169501
0.00533519
0.000164907
0.0053408
0.000159767
0.00534501
0.000154188
0.00534786
0.000148285
0.00534938
0.000142177
0.00534964
0.00013598
0.00534872
0.000129801
0.00534672
0.00012374
0.00534374
0.000117882
0.00533989
0.000112293
0.00533528
0.000107026
0.00533
0.000102117
0.00532416
9.75844e-05
0.00531782
9.34364e-05
0.00531108
8.96654e-05
0.00530402
8.62547e-05
0.00529666
8.31829e-05
0.00528904
8.04224e-05
0.00528119
7.79479e-05
0.00527314
7.57357e-05
0.00526493
7.37615e-05
0.00525655
7.20005e-05
0.00524803
7.04276e-05
0.00523938
6.90191e-05
0.00523059
6.77533e-05
0.00522168
6.66108e-05
0.00521264
6.55743e-05
0.00520348
6.46292e-05
0.0051942
6.37625e-05
0.0051848
6.29635e-05
0.00517527
6.22231e-05
0.00516563
6.15338e-05
0.00515586
6.08893e-05
0.00514596
6.02848e-05
0.00513595
5.97166e-05
0.00512581
5.91816e-05
0.00511555
5.86778e-05
0.00510517
5.82038e-05
0.00509467
5.77586e-05
0.00508404
5.7342e-05
0.00507329
5.69537e-05
0.00506243
5.65942e-05
0.00505143
5.62641e-05
0.00504032
5.59642e-05
0.00502908
5.56954e-05
0.00501772
5.5459e-05
0.00500623
5.52564e-05
0.00499461
5.50889e-05
0.00498287
5.49582e-05
0.00497098
5.48661e-05
0.00495896
5.48137e-05
0.0049468
5.48029e-05
0.00493449
5.48358e-05
0.00492203
5.49144e-05
0.0049094
5.50409e-05
0.00489662
5.52176e-05
0.00488365
5.54468e-05
0.00487051
5.57311e-05
0.00485717
5.6073e-05
0.00484364
5.64754e-05
0.00482988
5.69412e-05
0.00481591
5.74734e-05
0.00480169
5.80753e-05
0.00478722
5.87503e-05
0.00477248
5.9502e-05
0.00475745
6.03341e-05
0.00474211
6.12507e-05
0.00472645
6.2256e-05
0.00471045
6.33544e-05
0.00469407
6.45507e-05
0.0046773
6.58496e-05
0.00466012
6.72564e-05
0.00464248
6.87764e-05
0.00462437
7.04155e-05
0.00460574
7.21794e-05
0.00458658
7.40744e-05
0.00456683
7.61071e-05
0.00454646
7.8284e-05
0.00452543
8.06123e-05
0.00450369
8.30991e-05
0.0044812
8.57518e-05
0.00445791
8.85782e-05
0.00443375
9.1586e-05
0.00440868
9.47833e-05
0.00438262
9.81783e-05
0.00435553
0.000101779
0.00432731
0.000105595
0.00429791
0.000109632
0.00426724
0.000113899
0.00423521
0.000118405
0.00420173
0.000123157
0.00416672
0.00012816
0.00413006
0.000133422
0.00409165
0.000138948
0.00405137
0.000144741
0.00400911
0.000150803
0.00396472
0.000157136
0.00391809
0.000163738
0.00386905
0.000170605
0.00381746
0.000177731
0.00376317
0.000185105
0.00370599
0.000192712
0.00364577
0.000200535
0.00358232
0.000208548
0.00351544
0.000216721
0.00344496
0.000225017
0.00337067
0.000233391
0.00329238
0.000241787
0.00320988
0.000250143
0.00312299
0.000258383
0.00303152
0.00026642
0.00293529
0.000274144
0.00283417
0.000281455
0.00272801
0.000288232
0.00261672
0.000294334
0.00250026
0.000299607
0.00237863
0.000303887
0.00225192
0.000307002
0.00212033
0.000308767
0.00198415
0.000308995
0.00184384
0.0003075
0.00170002
0.000304111
0.00155354
0.00029866
0.00140549
0.000290993
0.00125723
0.000280986
0.00111042
0.000268574
0.000967006
0.000253785
0.000829111
0.000236769
0.000698938
0.000217838
0.000578484
0.000197472
0.000469276
0.000176294
0.000372146
0.000155007
0.000286697
0.000134421
0.000212127
0.000115287
0.000147362
9.80214e-05
9.12646e-05
8.26104e-05
4.32708e-05
6.7678e-05
2.54883e-06
5.32004e-05
3.95946e-05
-3.14034e-05
0.00500365
1.36379e-05
0.00501435
4.03033e-05
0.00503119
6.59762e-05
0.00504934
8.78856e-05
0.00506702
0.000104511
0.00508362
0.000116875
0.00509961
0.000126268
0.0051158
0.000134165
0.00513256
0.000141532
0.00514965
0.000148214
0.00516674
0.000153906
0.00518365
0.000158396
0.0052003
0.000161683
0.00521666
0.000163904
0.00523276
0.000165201
0.00524854
0.000165661
0.00526393
0.000165327
0.00527882
0.000164224
0.00529313
0.000162376
0.00530676
0.000159826
0.00531963
0.000156635
0.00533166
0.000152873
0.00534281
0.000148622
0.00535302
0.000143972
0.00536229
0.000139019
0.00537061
0.000133862
0.00537799
0.000128597
0.00538447
0.000123316
0.00539011
0.000118105
0.00539495
0.000113035
0.00539908
0.00010817
0.00540255
0.000103556
0.00540544
9.92279e-05
0.00540781
9.52078e-05
0.00540974
9.15053e-05
0.00541129
8.81194e-05
0.0054125
8.50429e-05
0.00541342
8.22642e-05
0.00541408
7.97649e-05
0.0054145
7.75235e-05
0.00541472
7.55193e-05
0.00541475
7.37319e-05
0.00541461
7.21409e-05
0.00541431
7.07259e-05
0.00541386
6.94671e-05
0.00541327
6.83456e-05
0.00541254
6.73442e-05
0.00541166
6.64474e-05
0.00541065
6.56417e-05
0.0054095
6.49153e-05
0.0054082
6.4258e-05
0.00540677
6.36612e-05
0.00540518
6.31176e-05
0.00540345
6.26212e-05
0.00540157
6.2167e-05
0.00539953
6.17513e-05
0.00539734
6.13709e-05
0.005395
6.10237e-05
0.00539249
6.0708e-05
0.00538983
6.04229e-05
0.005387
6.01679e-05
0.00538401
5.99428e-05
0.00538086
5.9748e-05
0.00537754
5.9584e-05
0.00537405
5.94518e-05
0.0053704
5.93523e-05
0.00536657
5.92868e-05
0.00536257
5.92569e-05
0.00535839
5.92642e-05
0.00535404
5.93104e-05
0.00534951
5.93975e-05
0.0053448
5.95273e-05
0.0053399
5.97019e-05
0.00533481
5.99237e-05
0.00532953
6.01951e-05
0.00532405
6.05188e-05
0.00531837
6.08974e-05
0.00531248
6.1334e-05
0.00530638
6.18314e-05
0.00530006
6.23931e-05
0.00529352
6.30223e-05
0.00528673
6.37227e-05
0.00527971
6.4498e-05
0.00527243
6.53523e-05
0.00526489
6.62898e-05
0.00525708
6.73149e-05
0.00524898
6.84325e-05
0.00524059
6.96474e-05
0.00523188
7.09649e-05
0.00522284
7.23907e-05
0.00521346
7.39306e-05
0.00520372
7.55907e-05
0.0051936
7.73777e-05
0.00518308
7.92984e-05
0.00517213
8.136e-05
0.00516074
8.35702e-05
0.00514888
8.5937e-05
0.00513652
8.84688e-05
0.00512363
9.11743e-05
0.00511018
9.40628e-05
0.00509613
9.71439e-05
0.00508145
0.000100428
0.00506611
0.000103924
0.00505005
0.000107645
0.00503323
0.0001116
0.00501561
0.000115802
0.00499713
0.000120263
0.00497773
0.000124994
0.00495735
0.000130009
0.00493593
0.000135319
0.0049134
0.000140937
0.00488968
0.000146877
0.00486469
0.000153151
0.00483834
0.00015977
0.00481054
0.000166747
0.00478119
0.000174093
0.00475017
0.000181819
0.00471738
0.000189932
0.00468267
0.00019844
0.00464593
0.00020735
0.004607
0.000216665
0.00456571
0.000226385
0.00452192
0.000236507
0.00447543
0.000247025
0.00442605
0.000257928
0.00437357
0.000269198
0.00431778
0.000280811
0.00425843
0.000292737
0.00419528
0.000304936
0.00412807
0.000317359
0.00405651
0.000329943
0.00398031
0.000342616
0.00389917
0.000355288
0.00381276
0.000367863
0.00372077
0.000380225
0.00362286
0.00039224
0.00351871
0.000403753
0.00340801
0.000414594
0.00329044
0.000424569
0.00316574
0.000433468
0.00303368
0.000441054
0.00289413
0.000447047
0.00274703
0.000451211
0.00259242
0.000453268
0.00243052
0.000452898
0.00226171
0.000449791
0.00208664
0.000443646
0.00190623
0.000434197
0.00172176
0.000421235
0.001535
0.000404604
0.00134826
0.000384208
0.00116449
0.000360061
0.000987148
0.000332354
0.000819999
0.000301571
0.000666703
0.000268583
0.000530099
0.000234625
0.000411689
0.00020102
0.000310309
0.000169058
0.000223748
0.00013976
0.000113703
0.00014964
0.00500249
1.11484e-05
0.00500982
3.29723e-05
0.00502171
5.40915e-05
0.00503621
7.33816e-05
0.00505142
8.93036e-05
0.00506648
0.000101815
0.00508114
0.000111609
0.00509573
0.000119567
0.00511075
0.000126517
0.00512619
0.000132769
0.00514189
0.000138213
0.00515762
0.000142664
0.00517324
0.000146061
0.00518869
0.000148452
0.00520396
0.000149934
0.00521902
0.000150602
0.00523382
0.000150525
0.0052483
0.000149747
0.00526237
0.000148302
0.00527597
0.000146231
0.00528901
0.000143586
0.00530146
0.00014043
0.00531325
0.000136834
0.00532434
0.000132875
0.00533473
0.000128635
0.00534439
0.000124198
0.00535334
0.000119648
0.00536159
0.000115061
0.00536919
0.000110511
0.00537616
0.000106061
0.00538257
0.000101767
0.00538845
9.76712e-05
0.00539387
9.38067e-05
0.00539888
9.01953e-05
0.00540354
8.68493e-05
0.00540789
8.37727e-05
0.00541197
8.09637e-05
0.00541581
7.84154e-05
0.00541946
7.61154e-05
0.00542294
7.40477e-05
0.00542626
7.2195e-05
0.00542946
7.054e-05
0.00543253
6.9066e-05
0.0054355
6.77563e-05
0.00543837
6.65941e-05
0.00544116
6.55636e-05
0.00544385
6.46498e-05
0.00544646
6.38389e-05
0.00544898
6.31189e-05
0.00545142
6.24788e-05
0.00545377
6.19095e-05
0.00545603
6.14027e-05
0.00545819
6.09517e-05
0.00546026
6.05507e-05
0.00546223
6.01949e-05
0.0054641
5.98806e-05
0.00546587
5.96046e-05
0.00546753
5.93648e-05
0.00546908
5.91594e-05
0.00547051
5.89873e-05
0.00547183
5.88481e-05
0.00547304
5.87414e-05
0.00547412
5.86675e-05
0.00547507
5.8627e-05
0.0054759
5.86206e-05
0.00547661
5.86494e-05
0.00547718
5.87148e-05
0.00547762
5.88182e-05
0.00547792
5.89613e-05
0.00547808
5.91459e-05
0.00547811
5.9374e-05
0.00547799
5.96478e-05
0.00547772
5.99696e-05
0.0054773
6.03419e-05
0.00547673
6.07673e-05
0.005476
6.12486e-05
0.00547511
6.1789e-05
0.00547405
6.23916e-05
0.00547282
6.30598e-05
0.00547142
6.37971e-05
0.00546983
6.46074e-05
0.00546806
6.54946e-05
0.0054661
6.6463e-05
0.00546393
6.75172e-05
0.00546156
6.86618e-05
0.00545897
6.99018e-05
0.00545616
7.12427e-05
0.00545312
7.26901e-05
0.00544983
7.42499e-05
0.0054463
7.59284e-05
0.0054425
7.77323e-05
0.00543842
7.96687e-05
0.00543405
8.1745e-05
0.00542938
8.39691e-05
0.00542439
8.63493e-05
0.00541907
8.88944e-05
0.00541339
9.16137e-05
0.00540734
9.45168e-05
0.0054009
9.76141e-05
0.00539405
0.000100916
0.00538676
0.000104434
0.005379
0.000108181
0.00537076
0.000112167
0.005362
0.000116408
0.00535268
0.000120915
0.00534278
0.000125703
0.00533226
0.000130786
0.00532107
0.000136181
0.00530918
0.000141902
0.00529653
0.000147966
0.00528308
0.000154389
0.00526877
0.000161189
0.00525354
0.000168382
0.00523732
0.000175986
0.00522005
0.000184019
0.00520165
0.000192497
0.00518203
0.000201437
0.0051611
0.000210856
0.00513877
0.00022077
0.00511493
0.000231194
0.00508945
0.000242139
0.00506222
0.000253618
0.00503309
0.00026564
0.0050019
0.000278211
0.0049685
0.000291333
0.00493269
0.000305004
0.00489428
0.000319218
0.00485306
0.000333961
0.00480878
0.000349213
0.0047612
0.000364946
0.00471002
0.000381121
0.00465495
0.000397688
0.00459565
0.000414587
0.00453177
0.000431744
0.00446292
0.000449068
0.00438871
0.000466454
0.00430869
0.000483773
0.00422241
0.000500878
0.00412938
0.000517596
0.00402911
0.000533733
0.00392111
0.000549058
0.00380484
0.000563319
0.00367981
0.000576243
0.00354555
0.000587524
0.00340164
0.000596813
0.00324769
0.000603734
0.00308346
0.00060788
0.00290886
0.000608792
0.00272401
0.000606083
0.00252929
0.000599328
0.00232544
0.000588054
0.00211365
0.00057185
0.0018956
0.000550407
0.00167362
0.000523551
0.00145098
0.000491229
0.00123203
0.000453569
0.00102208
0.000410976
0.000826794
0.00036434
0.00065127
0.000315284
0.000266113
0.00049886
0.00500185
9.29995e-06
0.00500728
2.75393e-05
0.00501604
4.53331e-05
0.00502755
6.18697e-05
0.00504038
7.64718e-05
0.00505372
8.84774e-05
0.00506711
9.8217e-05
0.00508051
0.000106168
0.00509415
0.000112875
0.00510819
0.000118737
0.00512255
0.00012385
0.00513708
0.000128134
0.00515162
0.000131518
0.00516608
0.000133994
0.0051804
0.000135614
0.00519455
0.000136455
0.00520848
0.000136589
0.00522215
0.000136076
0.0052355
0.000134958
0.00524845
0.000133279
0.00526095
0.000131085
0.00527295
0.000128431
0.0052844
0.000125378
0.00529529
0.000121994
0.00530557
0.000118349
0.00531526
0.000114515
0.00532434
0.000110563
0.00533284
0.000106561
0.00534078
0.000102571
0.00534819
9.86496e-05
0.00535511
9.48443e-05
0.00536159
9.11947e-05
0.00536767
8.77313e-05
0.00537339
8.4476e-05
0.00537879
8.14426e-05
0.00538393
7.86383e-05
0.00538883
7.60644e-05
0.00539352
7.37174e-05
0.00539805
7.15892e-05
0.00540243
6.96682e-05
0.00540668
6.79408e-05
0.00541083
6.63932e-05
0.00541489
6.50113e-05
0.00541886
6.37813e-05
0.00542276
6.26894e-05
0.00542661
6.17221e-05
0.00543039
6.08666e-05
0.00543412
6.0111e-05
0.00543779
5.94444e-05
0.00544141
5.88572e-05
0.00544498
5.83409e-05
0.0054485
5.7888e-05
0.00545196
5.74924e-05
0.00545536
5.71484e-05
0.0054587
5.68518e-05
0.00546198
5.65988e-05
0.0054652
5.63866e-05
0.00546835
5.62128e-05
0.00547144
5.60758e-05
0.00547445
5.59746e-05
0.00547739
5.59085e-05
0.00548025
5.58773e-05
0.00548304
5.58812e-05
0.00548575
5.59206e-05
0.00548837
5.59965e-05
0.00549091
5.61097e-05
0.00549336
5.62617e-05
0.00549573
5.64539e-05
0.005498
5.6688e-05
0.00550018
5.6966e-05
0.00550226
5.72898e-05
0.00550425
5.76618e-05
0.00550614
5.80843e-05
0.00550792
5.856e-05
0.00550959
5.90916e-05
0.00551116
5.96821e-05
0.00551261
6.03347e-05
0.00551395
6.10528e-05
0.00551517
6.184e-05
0.00551627
6.27e-05
0.00551724
6.36369e-05
0.00551808
6.46549e-05
0.00551878
6.57586e-05
0.00551935
6.69527e-05
0.00551977
6.82423e-05
0.00552004
6.96328e-05
0.00552015
7.11299e-05
0.0055201
7.27397e-05
0.00551988
7.44684e-05
0.00551949
7.63229e-05
0.00551891
7.83104e-05
0.00551814
8.04384e-05
0.00551717
8.27149e-05
0.00551599
8.51484e-05
0.00551459
8.77479e-05
0.00551296
9.05229e-05
0.00551109
9.34833e-05
0.00550897
9.66397e-05
0.00550658
0.000100003
0.00550391
0.000103586
0.00550095
0.000107399
0.00549767
0.000111457
0.00549407
0.000115773
0.00549011
0.00012036
0.00548579
0.000125235
0.00548108
0.000130413
0.00547596
0.00013591
0.0054704
0.000141743
0.00546437
0.000147931
0.00545784
0.000154491
0.00545079
0.000161443
0.00544317
0.000168807
0.00543495
0.000176604
0.00542608
0.000184853
0.00541652
0.000193577
0.00540622
0.000202797
0.00539513
0.000212535
0.00538317
0.000222813
0.00537029
0.000233652
0.00535641
0.000245075
0.00534144
0.000257102
0.00532531
0.000269752
0.00530791
0.000283045
0.00528912
0.000296998
0.00526883
0.000311624
0.0052469
0.000326936
0.00522317
0.000342941
0.00519749
0.000359644
0.00516966
0.000377042
0.00513948
0.000395129
0.00510671
0.000413889
0.0050711
0.000433299
0.00503236
0.000453326
0.00499018
0.000473926
0.0049442
0.000495043
0.00489405
0.000516603
0.00483931
0.000538519
0.0047795
0.000560682
0.00471414
0.000582961
0.00464267
0.000605202
0.0045645
0.000627224
0.00447901
0.000648816
0.00438551
0.000669737
0.00428333
0.000689709
0.00417173
0.000708414
0.00404997
0.000725488
0.00391734
0.000740519
0.00377308
0.00075305
0.00361656
0.000762605
0.00344723
0.000768652
0.00326467
0.000770613
0.00306866
0.000767861
0.00285934
0.000759733
0.00263716
0.000745724
0.0024032
0.000725193
0.00215919
0.000697573
0.00190765
0.000662522
0.00165203
0.000619954
0.00139726
0.00057006
0.000513429
0.00114994
0.00500144
7.86108e-06
0.00500568
2.33029e-05
0.00501255
3.84555e-05
0.00502174
5.26821e-05
0.00503256
6.56477e-05
0.00504425
7.67963e-05
0.00505635
8.61134e-05
0.00506867
9.38475e-05
0.00508122
0.000100327
0.00509409
0.000105867
0.00510729
0.000110649
0.00512073
0.000114696
0.00513427
0.000117971
0.00514782
0.000120449
0.00516128
0.000122149
0.00517462
0.000123123
0.00518777
0.000123436
0.0052007
0.000123146
0.00521335
0.000122306
0.00522567
0.000120959
0.00523761
0.00011915
0.00524911
0.000116926
0.00526015
0.000114342
0.00527069
0.000111455
0.00528071
0.000108327
0.00529021
0.000105018
0.00529918
0.000101591
0.00530763
9.81043e-05
0.00531559
9.46112e-05
0.00532308
9.11609e-05
0.00533013
8.7796e-05
0.00533677
8.4552e-05
0.00534305
8.14572e-05
0.00534899
7.85329e-05
0.00535464
7.57938e-05
0.00536003
7.32484e-05
0.00536519
7.09004e-05
0.00537016
6.87488e-05
0.00537496
6.67885e-05
0.00537962
6.50114e-05
0.00538415
6.34075e-05
0.00538858
6.19657e-05
0.00539292
6.06748e-05
0.00539718
5.95231e-05
0.00540137
5.84993e-05
0.0054055
5.7592e-05
0.00540957
5.67903e-05
0.0054136
5.6084e-05
0.00541758
5.54636e-05
0.00542152
5.49204e-05
0.00542541
5.4447e-05
0.00542926
5.40365e-05
0.00543307
5.36833e-05
0.00543684
5.33824e-05
0.00544056
5.31296e-05
0.00544424
5.29216e-05
0.00544787
5.27556e-05
0.00545145
5.26295e-05
0.00545498
5.25418e-05
0.00545847
5.24913e-05
0.0054619
5.24776e-05
0.00546528
5.25003e-05
0.0054686
5.25597e-05
0.00547186
5.26563e-05
0.00547507
5.27909e-05
0.00547821
5.29645e-05
0.0054813
5.31783e-05
0.00548432
5.3434e-05
0.00548727
5.37333e-05
0.00549016
5.40781e-05
0.00549298
5.44705e-05
0.00549573
5.49127e-05
0.0054984
5.54074e-05
0.00550101
5.59572e-05
0.00550353
5.6565e-05
0.00550598
5.72338e-05
0.00550835
5.79669e-05
0.00551063
5.87678e-05
0.00551283
5.96402e-05
0.00551495
6.0588e-05
0.00551697
6.16155e-05
0.0055189
6.2727e-05
0.00552073
6.39272e-05
0.00552246
6.52211e-05
0.00552409
6.6614e-05
0.00552561
6.81115e-05
0.00552702
6.97194e-05
0.00552831
7.1444e-05
0.00552949
7.3292e-05
0.00553054
7.52704e-05
0.00553147
7.73866e-05
0.00553226
7.96486e-05
0.00553291
8.20646e-05
0.00553341
8.46435e-05
0.00553377
8.73946e-05
0.00553396
9.03278e-05
0.00553399
9.34534e-05
0.00553385
9.67826e-05
0.00553352
0.000100327
0.00553301
0.000104098
0.0055323
0.00010811
0.00553138
0.000112376
0.00553024
0.00011691
0.00552888
0.000121727
0.00552727
0.000126843
0.00552541
0.000132275
0.00552328
0.00013804
0.00552086
0.000144156
0.00551815
0.000150642
0.00551513
0.000157518
0.00551176
0.000164805
0.00550805
0.000172524
0.00550395
0.000180698
0.00549946
0.000189349
0.00549453
0.000198501
0.00548915
0.000208179
0.00548328
0.000218408
0.00547688
0.000229212
0.00546991
0.000240618
0.00546234
0.000252651
0.0054541
0.000265338
0.00544515
0.000278704
0.00543542
0.000292774
0.00542485
0.000307573
0.00541335
0.000323125
0.00540083
0.00033945
0.00538721
0.000356568
0.00537235
0.000374497
0.00535615
0.000393249
0.00533844
0.000412835
0.00531907
0.000433258
0.00529785
0.000454518
0.00527457
0.000476606
0.00524899
0.000499505
0.00522084
0.000523191
0.00518982
0.000547624
0.00515559
0.000572754
0.00511775
0.000598517
0.00507589
0.000624827
0.00502951
0.00065158
0.00497808
0.000678652
0.00492101
0.000705888
0.00485764
0.000733105
0.00478727
0.000760085
0.00470911
0.000786573
0.00462233
0.000812266
0.00452603