/*--------------------------------*- C++ -*----------------------------------*\
| =========                 |                                                 |
| \\      /  F ield         | OpenFOAM: The Open Source CFD Toolbox           |
|  \\    /   O peration     | Version:  2306                                  |
|   \\  /    A nd           | Website:  www.openfoam.com                      |
|    \\/     M anipulation  |                                                 |
\*---------------------------------------------------------------------------*/
FoamFile
{
    version     2.0;
    format      ascii;
    arch        "LSB;label=32;scalar=64";
    class       volVectorField;
    location    "0.25";
    object      U;
}
// * * * * * * * * * * * * * * * * * * * * * * * * * * * * * * * * * * * * * //

dimensions      [0 1 -1 0 0 0 0];

internalField   nonuniform List<vector> 
17600
(
(9.80708 0.0850068 0)
(9.62282 0.1805 0)
(9.41196 0.217949 0)
(9.14628 0.225578 0)
(8.83438 0.2251 0)
(8.49836 0.225385 0)
(8.15616 0.226736 0)
(7.81671 0.227129 0)
(7.48269 0.22522 0)
(7.15415 0.220818 0)
(6.83067 0.214449 0)
(6.51243 0.206753 0)
(6.20025 0.19816 0)
(5.8955 0.188853 0)
(5.59966 0.178848 0)
(5.31424 0.16813 0)
(5.04059 0.156698 0)
(4.78011 0.144614 0)
(4.53372 0.131895 0)
(4.30219 0.118629 0)
(4.08619 0.104999 0)
(3.8862 0.0912602 0)
(3.7025 0.0777059 0)
(3.53512 0.0646298 0)
(3.38382 0.0523013 0)
(3.2481 0.0409465 0)
(3.12724 0.0307348 0)
(3.02033 0.0217723 0)
(2.92632 0.0141015 0)
(2.84406 0.00770775 0)
(2.77236 0.00253074 0)
(2.71 -0.00152376 0)
(2.65581 -0.00456966 0)
(2.60866 -0.0067315 0)
(2.56751 -0.00813184 0)
(2.53138 -0.00889254 0)
(2.49943 -0.00912318 0)
(2.47091 -0.00895465 0)
(2.44521 -0.00850811 0)
(2.42178 -0.00787746 0)
(2.40018 -0.00713179 0)
(2.38001 -0.00632231 0)
(2.36096 -0.00548741 0)
(2.34276 -0.00465564 0)
(2.32522 -0.00384764 0)
(2.30817 -0.00307785 0)
(2.2915 -0.00235588 0)
(2.27511 -0.00168772 0)
(2.25894 -0.00107651 0)
(2.24294 -0.000523225 0)
(2.22708 -2.70475e-05 0)
(2.21133 0.000414178 0)
(2.19569 0.000803607 0)
(2.18015 0.00114506 0)
(2.16471 0.00144274 0)
(2.14937 0.00170102 0)
(2.13413 0.00192425 0)
(2.11899 0.00211666 0)
(2.10395 0.00228225 0)
(2.08902 0.00242478 0)
(2.0742 0.00254768 0)
(2.05949 0.0026541 0)
(2.04488 0.00274688 0)
(2.03036 0.00282856 0)
(2.01595 0.0029014 0)
(2.00162 0.00296739 0)
(1.98738 0.00302829 0)
(1.9732 0.00308564 0)
(1.95909 0.00314076 0)
(1.94503 0.00319481 0)
(1.93101 0.00324873 0)
(1.91702 0.00330331 0)
(1.90303 0.00335926 0)
(1.88904 0.00341727 0)
(1.87503 0.003478 0)
(1.86098 0.00354207 0)
(1.84688 0.00361001 0)
(1.83271 0.00368231 0)
(1.81844 0.00375939 0)
(1.80406 0.00384161 0)
(1.78955 0.00392931 0)
(1.77489 0.00402281 0)
(1.76005 0.00412237 0)
(1.74501 0.00422825 0)
(1.72974 0.00434069 0)
(1.71423 0.00445987 0)
(1.69845 0.00458599 0)
(1.68237 0.00471919 0)
(1.66597 0.00485961 0)
(1.64921 0.00500734 0)
(1.63207 0.00516242 0)
(1.61453 0.00532488 0)
(1.59654 0.00549469 0)
(1.57808 0.00567175 0)
(1.55912 0.0058559 0)
(1.53962 0.00604691 0)
(1.51956 0.00624445 0)
(1.49889 0.00644807 0)
(1.47759 0.00665722 0)
(1.45561 0.00687118 0)
(1.43293 0.00708906 0)
(1.40951 0.00730975 0)
(1.38532 0.00753191 0)
(1.36032 0.00775393 0)
(1.33447 0.00797402 0)
(1.30775 0.00819075 0)
(1.28012 0.00840261 0)
(1.25155 0.00860769 0)
(1.22202 0.00880372 0)
(1.1915 0.00898813 0)
(1.15997 0.00915825 0)
(1.12742 0.00931097 0)
(1.09383 0.00944251 0)
(1.0592 0.00954864 0)
(1.02354 0.00962478 0)
(0.986838 0.00966608 0)
(0.949131 0.00966751 0)
(0.910444 0.00962402 0)
(0.870818 0.00953066 0)
(0.830308 0.00938284 0)
(0.788979 0.00917656 0)
(0.746915 0.00890874 0)
(0.704213 0.00857765 0)
(0.660985 0.00818334 0)
(0.617359 0.00772812 0)
(0.573481 0.00721713 0)
(0.529508 0.00665876 0)
(0.485612 0.0060651 0)
(0.441974 0.00545196 0)
(0.398785 0.00483866 0)
(0.356239 0.00424703 0)
(0.314533 0.00369944 0)
(0.273863 0.00321591 0)
(0.234422 0.00281025 0)
(0.196397 0.00248608 0)
(0.159975 0.00223302 0)
(0.125339 0.00202457 0)
(0.0926727 0.00181888 0)
(0.0621581 0.00156524 0)
(0.0339641 0.00121621 0)
(0.00822436 0.000746513 0)
(-0.014951 0.000164515 0)
(-0.0355647 -0.000508235 0)
(-0.0537286 -0.00118415 0)
(-0.0695798 -0.00177388 0)
(-0.083279 -0.00220962 0)
(-0.0949581 -0.00247917 0)
(-0.104661 -0.00266563 0)
(-0.112359 -0.00285601 0)
(-0.118071 -0.00304092 0)
(-0.121959 -0.00312918 0)
(-0.124363 -0.00305851 0)
(-0.125651 -0.0028808 0)
(-0.126047 -0.00269085 0)
(-0.125643 -0.00253211 0)
(-0.124494 -0.00240041 0)
(-0.122601 -0.00234212 0)
(-0.119683 -0.002536 0)
(-0.115129 -0.0031289 0)
(-0.108422 -0.00399008 0)
(10.0008 0.122279 0)
(10.0676 0.272137 0)
(10.1383 0.342321 0)
(10.1915 0.367553 0)
(10.2161 0.377243 0)
(10.2123 0.385769 0)
(10.1866 0.395783 0)
(10.1458 0.405221 0)
(10.094 0.411969 0)
(10.033 0.415278 0)
(9.96331 0.415461 0)
(9.88493 0.413209 0)
(9.79809 0.409071 0)
(9.70346 0.403327 0)
(9.60187 0.396019 0)
(9.49434 0.387103 0)
(9.38178 0.376513 0)
(9.26522 0.364238 0)
(9.14542 0.350296 0)
(9.02322 0.334786 0)
(8.89945 0.317891 0)
(8.77494 0.299862 0)
(8.65046 0.280995 0)
(8.52673 0.261609 0)
(8.40439 0.242032 0)
(8.28403 0.222587 0)
(8.16613 0.203573 0)
(8.05115 0.185259 0)
(7.9394 0.167866 0)
(7.83117 0.151571 0)
(7.72663 0.136495 0)
(7.62591 0.122709 0)
(7.52904 0.110238 0)
(7.43604 0.0990699 0)
(7.3468 0.0891537 0)
(7.26127 0.0804242 0)
(7.17922 0.0727909 0)
(7.1005 0.0661748 0)
(7.02498 0.0604963 0)
(6.95248 0.0556663 0)
(6.88283 0.0515877 0)
(6.81584 0.0481601 0)
(6.75134 0.0452866 0)
(6.68916 0.0428779 0)
(6.62913 0.0408551 0)
(6.5711 0.0391503 0)
(6.51493 0.0377061 0)
(6.46049 0.0364743 0)
(6.40766 0.0354146 0)
(6.35633 0.0344941 0)
(6.30639 0.0336856 0)
(6.25776 0.0329671 0)
(6.21035 0.0323212 0)
(6.16409 0.031734 0)
(6.1189 0.0311949 0)
(6.07472 0.0306957 0)
(6.03149 0.0302305 0)
(5.98915 0.0297947 0)
(5.94765 0.0293854 0)
(5.90695 0.0290005 0)
(5.86699 0.0286387 0)
(5.82772 0.0282996 0)
(5.78912 0.027983 0)
(5.75112 0.0276891 0)
(5.7137 0.0274186 0)
(5.67682 0.027172 0)
(5.64043 0.0269504 0)
(5.60449 0.0267545 0)
(5.56897 0.0265855 0)
(5.53384 0.0264443 0)
(5.49904 0.026332 0)
(5.46455 0.0262496 0)
(5.43033 0.026198 0)
(5.39633 0.0261781 0)
(5.36252 0.0261911 0)
(5.32887 0.0262379 0)
(5.29532 0.0263196 0)
(5.26184 0.0264374 0)
(5.22839 0.0265923 0)
(5.19493 0.0267856 0)
(5.16141 0.0270185 0)
(5.12779 0.0272922 0)
(5.09402 0.027608 0)
(5.06006 0.0279675 0)
(5.02585 0.0283719 0)
(4.99135 0.0288228 0)
(4.95651 0.0293218 0)
(4.92126 0.0298705 0)
(4.88557 0.0304705 0)
(4.84936 0.0311237 0)
(4.81258 0.0318317 0)
(4.77517 0.0325964 0)
(4.73706 0.0334196 0)
(4.69818 0.0343033 0)
(4.65847 0.0352492 0)
(4.61786 0.0362593 0)
(4.57626 0.0373354 0)
(4.5336 0.0384793 0)
(4.4898 0.0396926 0)
(4.44478 0.0409769 0)
(4.39844 0.0423337 0)
(4.35069 0.043764 0)
(4.30145 0.0452688 0)
(4.2506 0.0468485 0)
(4.19805 0.0485033 0)
(4.14371 0.050232 0)
(4.08745 0.0520327 0)
(4.02917 0.0539027 0)
(3.96875 0.0558382 0)
(3.90609 0.0578348 0)
(3.84106 0.0598868 0)
(3.77355 0.0619874 0)
(3.70343 0.0641286 0)
(3.6306 0.0663005 0)
(3.55492 0.068491 0)
(3.4763 0.0706866 0)
(3.39461 0.072871 0)
(3.30977 0.0750258 0)
(3.22167 0.0771296 0)
(3.13023 0.0791584 0)
(3.0354 0.0810852 0)
(2.93711 0.0828802 0)
(2.83535 0.0845106 0)
(2.73012 0.085941 0)
(2.62146 0.087134 0)
(2.50943 0.0880499 0)
(2.39415 0.0886485 0)
(2.27581 0.0888892 0)
(2.15463 0.0887322 0)
(2.03092 0.0881407 0)
(1.90506 0.0870814 0)
(1.7775 0.0855279 0)
(1.64881 0.0834625 0)
(1.51961 0.0808796 0)
(1.39063 0.0777867 0)
(1.26265 0.0742049 0)
(1.13651 0.0701718 0)
(1.01309 0.0657457 0)
(0.893235 0.061012 0)
(0.777767 0.0560818 0)
(0.667405 0.0511008 0)
(0.562784 0.046237 0)
(0.464422 0.041604 0)
(0.372708 0.0372879 0)
(0.287952 0.0332616 0)
(0.210377 0.0293817 0)
(0.140009 0.025462 0)
(0.0769289 0.0214395 0)
(0.0212177 0.0173627 0)
(-0.0273231 0.013404 0)
(-0.0691917 0.00985182 0)
(-0.105108 0.00693693 0)
(-0.135619 0.00465989 0)
(-0.161003 0.00269297 0)
(-0.181571 0.000871589 0)
(-0.197738 -0.000838367 0)
(-0.209909 -0.00262878 0)
(-0.218056 -0.00509084 0)
(-0.221773 -0.00847913 0)
(-0.22094 -0.0119894 0)
(10.0003 0.0614123 0)
(10.0359 0.160323 0)
(10.0898 0.227823 0)
(10.1516 0.268451 0)
(10.2101 0.293286 0)
(10.2592 0.312152 0)
(10.298 0.330013 0)
(10.3292 0.34748 0)
(10.3556 0.363367 0)
(10.3789 0.376573 0)
(10.3993 0.386702 0)
(10.4165 0.393931 0)
(10.4298 0.398646 0)
(10.4388 0.401153 0)
(10.4433 0.401597 0)
(10.4434 0.399985 0)
(10.4391 0.396279 0)
(10.4303 0.390455 0)
(10.4173 0.382575 0)
(10.4001 0.372768 0)
(10.3788 0.36122 0)
(10.3536 0.348164 0)
(10.3247 0.333869 0)
(10.2925 0.318633 0)
(10.2571 0.302767 0)
(10.2189 0.286586 0)
(10.1783 0.27039 0)
(10.1356 0.254459 0)
(10.0911 0.239029 0)
(10.0453 0.2243 0)
(9.99838 0.210417 0)
(9.95074 0.197481 0)
(9.9026 0.185543 0)
(9.85421 0.174622 0)
(9.80574 0.164695 0)
(9.75738 0.155725 0)
(9.70922 0.147651 0)
(9.66138 0.14042 0)
(9.61395 0.133976 0)
(9.56697 0.128256 0)
(9.52044 0.123184 0)
(9.47438 0.118681 0)
(9.42879 0.11467 0)
(9.38366 0.111079 0)
(9.33899 0.107844 0)
(9.29477 0.10491 0)
(9.25098 0.10223 0)
(9.20761 0.0997666 0)
(9.16464 0.0974862 0)
(9.12206 0.0953622 0)
(9.07985 0.0933728 0)
(9.038 0.0915 0)
(8.9965 0.0897293 0)
(8.95532 0.0880494 0)
(8.91447 0.0864512 0)
(8.87392 0.0849281 0)
(8.83368 0.0834748 0)
(8.79371 0.0820876 0)
(8.75403 0.0807639 0)
(8.71461 0.0795021 0)
(8.67544 0.0783011 0)
(8.63651 0.0771605 0)
(8.59782 0.0760804 0)
(8.55934 0.0750611 0)
(8.52107 0.0741034 0)
(8.483 0.0732082 0)
(8.4451 0.0723764 0)
(8.40736 0.0716094 0)
(8.36976 0.0709084 0)
(8.3323 0.070275 0)
(8.29494 0.0697106 0)
(8.25767 0.069217 0)
(8.22046 0.068796 0)
(8.1833 0.0684495 0)
(8.14616 0.0681794 0)
(8.10901 0.0679877 0)
(8.07183 0.0678765 0)
(8.03459 0.0678478 0)
(7.99725 0.067904 0)
(7.95979 0.0680474 0)
(7.92217 0.0682807 0)
(7.88435 0.0686065 0)
(7.8463 0.0690277 0)
(7.80798 0.0695475 0)
(7.76934 0.0701691 0)
(7.73033 0.0708961 0)
(7.69092 0.071732 0)
(7.65105 0.072681 0)
(7.61067 0.073747 0)
(7.56973 0.0749346 0)
(7.52815 0.0762484 0)
(7.48589 0.0776933 0)
(7.44288 0.0792743 0)
(7.39904 0.0809969 0)
(7.35431 0.0828667 0)
(7.30861 0.0848893 0)
(7.26186 0.087071 0)
(7.21397 0.0894177 0)
(7.16485 0.0919361 0)
(7.1144 0.0946324 0)
(7.06254 0.0975134 0)
(7.00914 0.100586 0)
(6.9541 0.103856 0)
(6.8973 0.10733 0)
(6.83863 0.111015 0)
(6.77793 0.114917 0)
(6.71509 0.119038 0)
(6.64996 0.123385 0)
(6.58237 0.12796 0)
(6.51218 0.132764 0)
(6.43923 0.137799 0)
(6.36332 0.143064 0)
(6.28429 0.148554 0)
(6.20195 0.154265 0)
(6.11609 0.160189 0)
(6.02651 0.166316 0)
(5.93299 0.17263 0)
(5.83533 0.179114 0)
(5.7333 0.185745 0)
(5.62667 0.192494 0)
(5.51521 0.199327 0)
(5.39869 0.206203 0)
(5.27687 0.213073 0)
(5.14954 0.219879 0)
(5.01647 0.226555 0)
(4.87746 0.233024 0)
(4.73233 0.239198 0)
(4.58091 0.244978 0)
(4.42307 0.25025 0)
(4.25873 0.25489 0)
(4.08785 0.258759 0)
(3.91047 0.261705 0)
(3.7267 0.263566 0)
(3.53676 0.264173 0)
(3.34098 0.263361 0)
(3.13981 0.260971 0)
(2.93389 0.256863 0)
(2.72403 0.250926 0)
(2.51125 0.2431 0)
(2.29682 0.233386 0)
(2.08226 0.221863 0)
(1.86936 0.208703 0)
(1.66014 0.194159 0)
(1.4568 0.178565 0)
(1.2616 0.162304 0)
(1.07667 0.145797 0)
(0.903807 0.129468 0)
(0.744333 0.113844 0)
(0.598746 0.0994718 0)
(0.466806 0.0866505 0)
(0.348135 0.0752485 0)
(0.242431 0.0647248 0)
(0.14929 0.0545795 0)
(0.0685989 0.0447603 0)
(-0.000444688 0.0353786 0)
(-0.0590332 0.0267278 0)
(-0.108514 0.0186051 0)
(-0.14945 0.0100856 0)
(-0.182063 0.0007674 0)
(-0.206734 -0.00793509 0)
(10.0002 0.0417813 0)
(10.0198 0.117276 0)
(10.0537 0.178917 0)
(10.0983 0.224503 0)
(10.1468 0.25657 0)
(10.1935 0.28005 0)
(10.2355 0.299311 0)
(10.2732 0.316687 0)
(10.3082 0.332561 0)
(10.3422 0.34643 0)
(10.376 0.357804 0)
(10.4096 0.366546 0)
(10.4427 0.372813 0)
(10.4748 0.376859 0)
(10.5055 0.378881 0)
(10.5345 0.378978 0)
(10.5616 0.377186 0)
(10.5867 0.373534 0)
(10.6096 0.368088 0)
(10.6301 0.360955 0)
(10.6482 0.352281 0)
(10.6636 0.34225 0)
(10.6764 0.331071 0)
(10.6863 0.318981 0)
(10.6935 0.306229 0)
(10.698 0.293069 0)
(10.6999 0.279746 0)
(10.6993 0.266493 0)
(10.6964 0.253514 0)
(10.6914 0.240983 0)
(10.6846 0.229041 0)
(10.6761 0.217791 0)
(10.6661 0.207304 0)
(10.6549 0.197616 0)
(10.6426 0.188743 0)
(10.6295 0.180673 0)
(10.6156 0.173382 0)
(10.601 0.166825 0)
(10.586 0.160939 0)
(10.5705 0.155665 0)
(10.5545 0.150939 0)
(10.5382 0.146704 0)
(10.5216 0.142904 0)
(10.5047 0.139485 0)
(10.4875 0.136399 0)
(10.47 0.133603 0)
(10.4523 0.131057 0)
(10.4344 0.128729 0)
(10.4162 0.126588 0)
(10.3977 0.124608 0)
(10.379 0.122768 0)
(10.3601 0.12105 0)
(10.3409 0.119438 0)
(10.3215 0.11792 0)
(10.3019 0.116486 0)
(10.2819 0.115126 0)
(10.2618 0.113836 0)
(10.2414 0.112611 0)
(10.2208 0.111448 0)
(10.1999 0.110343 0)
(10.1787 0.109297 0)
(10.1574 0.108308 0)
(10.1358 0.107377 0)
(10.1139 0.106504 0)
(10.0918 0.105692 0)
(10.0695 0.104941 0)
(10.0469 0.104253 0)
(10.024 0.103631 0)
(10.0009 0.103077 0)
(9.97753 0.102593 0)
(9.9539 0.102183 0)
(9.93 0.10185 0)
(9.90582 0.101597 0)
(9.88135 0.101427 0)
(9.85658 0.101345 0)
(9.83149 0.101355 0)
(9.80609 0.101459 0)
(9.78034 0.101663 0)
(9.75424 0.10197 0)
(9.72776 0.102386 0)
(9.70089 0.102914 0)
(9.67361 0.10356 0)
(9.64588 0.10433 0)
(9.61769 0.105228 0)
(9.58901 0.10626 0)
(9.5598 0.107432 0)
(9.53004 0.108752 0)
(9.49969 0.110225 0)
(9.4687 0.11186 0)
(9.43705 0.113662 0)
(9.40468 0.115641 0)
(9.37155 0.117805 0)
(9.3376 0.120162 0)
(9.30279 0.122722 0)
(9.26706 0.125494 0)
(9.23034 0.128488 0)
(9.19256 0.131714 0)
(9.15366 0.135184 0)
(9.11357 0.138909 0)
(9.07219 0.1429 0)
(9.02944 0.14717 0)
(8.98524 0.151731 0)
(8.93948 0.156595 0)
(8.89206 0.161775 0)
(8.84286 0.167285 0)
(8.79177 0.173137 0)
(8.73865 0.179343 0)
(8.68338 0.185918 0)
(8.6258 0.192874 0)
(8.56577 0.200222 0)
(8.50311 0.207973 0)
(8.43766 0.216137 0)
(8.36923 0.224722 0)
(8.29761 0.233734 0)
(8.2226 0.243178 0)
(8.14398 0.253055 0)
(8.06151 0.263363 0)
(7.97494 0.274098 0)
(7.884 0.28525 0)
(7.78841 0.296803 0)
(7.68788 0.308736 0)
(7.58209 0.321022 0)
(7.47072 0.333622 0)
(7.35343 0.346492 0)
(7.22986 0.359574 0)
(7.09965 0.372799 0)
(6.9624 0.386085 0)
(6.81775 0.399334 0)
(6.66528 0.412432 0)
(6.5046 0.425244 0)
(6.33533 0.437618 0)
(6.15707 0.449378 0)
(5.96946 0.460327 0)
(5.77219 0.470239 0)
(5.56497 0.47886 0)
(5.34756 0.485914 0)
(5.11981 0.491103 0)
(4.88168 0.49411 0)
(4.63327 0.494607 0)
(4.37484 0.492254 0)
(4.10686 0.486714 0)
(3.83009 0.47766 0)
(3.54558 0.464804 0)
(3.25479 0.447937 0)
(2.95961 0.426969 0)
(2.66248 0.401987 0)
(2.36644 0.373321 0)
(2.07511 0.341568 0)
(1.79262 0.307648 0)
(1.5234 0.272782 0)
(1.27179 0.238338 0)
(1.04157 0.205616 0)
(0.835133 0.175644 0)
(0.653135 0.149454 0)
(0.493817 0.127237 0)
(0.354892 0.10797 0)
(0.233998 0.0895698 0)
(0.130298 0.0705436 0)
(0.0421698 0.0503868 0)
(-0.0319285 0.0311567 0)
(10.0001 0.0316628 0)
(10.0128 0.0917416 0)
(10.036 0.145038 0)
(10.0682 0.188699 0)
(10.1059 0.222283 0)
(10.1451 0.24772 0)
(10.1829 0.267816 0)
(10.2183 0.284871 0)
(10.2517 0.299984 0)
(10.2843 0.313287 0)
(10.3168 0.324522 0)
(10.3498 0.333478 0)
(10.383 0.340139 0)
(10.4162 0.344642 0)
(10.449 0.347164 0)
(10.4811 0.347854 0)
(10.5124 0.346818 0)
(10.5427 0.344131 0)
(10.5719 0.339872 0)
(10.5998 0.334141 0)
(10.6264 0.327066 0)
(10.6514 0.318802 0)
(10.6746 0.309527 0)
(10.6961 0.299436 0)
(10.7157 0.288737 0)
(10.7334 0.277641 0)
(10.7492 0.266354 0)
(10.7632 0.25507 0)
(10.7753 0.243964 0)
(10.7858 0.233187 0)
(10.7948 0.222865 0)
(10.8024 0.213094 0)
(10.8087 0.203944 0)
(10.8139 0.195458 0)
(10.8181 0.187657 0)
(10.8215 0.18054 0)
(10.8242 0.174091 0)
(10.8263 0.168275 0)
(10.8278 0.163045 0)
(10.8288 0.158352 0)
(10.8294 0.154149 0)
(10.8296 0.150391 0)
(10.8295 0.147033 0)
(10.829 0.144035 0)
(10.8283 0.141356 0)
(10.8272 0.138957 0)
(10.8259 0.136804 0)
(10.8243 0.134865 0)
(10.8224 0.133113 0)
(10.8202 0.131522 0)
(10.8178 0.130071 0)
(10.815 0.128742 0)
(10.812 0.127519 0)
(10.8087 0.126391 0)
(10.8051 0.125346 0)
(10.8012 0.124377 0)
(10.7969 0.123477 0)
(10.7924 0.122641 0)
(10.7876 0.121865 0)
(10.7824 0.121148 0)
(10.7769 0.120489 0)
(10.7711 0.119886 0)
(10.7649 0.11934 0)
(10.7585 0.118853 0)
(10.7517 0.118426 0)
(10.7445 0.11806 0)
(10.737 0.117759 0)
(10.7292 0.117525 0)
(10.721 0.11736 0)
(10.7125 0.117269 0)
(10.7036 0.117255 0)
(10.6944 0.117322 0)
(10.6848 0.117474 0)
(10.6748 0.117716 0)
(10.6644 0.118051 0)
(10.6537 0.118486 0)
(10.6425 0.119025 0)
(10.6309 0.119673 0)
(10.619 0.120437 0)
(10.6065 0.121322 0)
(10.5937 0.122334 0)
(10.5803 0.12348 0)
(10.5665 0.124768 0)
(10.5522 0.126203 0)
(10.5374 0.127795 0)
(10.5221 0.129551 0)
(10.5062 0.13148 0)
(10.4897 0.133592 0)
(10.4726 0.135895 0)
(10.4549 0.138399 0)
(10.4364 0.141116 0)
(10.4173 0.144057 0)
(10.3975 0.147233 0)
(10.3768 0.150658 0)
(10.3554 0.154343 0)
(10.3331 0.158303 0)
(10.3098 0.162552 0)
(10.2856 0.167105 0)
(10.2604 0.171977 0)
(10.234 0.177186 0)
(10.2066 0.182748 0)
(10.1779 0.188681 0)
(10.1479 0.195003 0)
(10.1165 0.201732 0)
(10.0836 0.208889 0)
(10.0492 0.216494 0)
(10.0131 0.224566 0)
(9.97528 0.233127 0)
(9.93554 0.242198 0)
(9.89378 0.2518 0)
(9.84987 0.261953 0)
(9.80366 0.272678 0)
(9.755 0.283995 0)
(9.70371 0.295923 0)
(9.64961 0.30848 0)
(9.59252 0.321682 0)
(9.53222 0.335542 0)
(9.46847 0.350072 0)
(9.40105 0.365279 0)
(9.32968 0.381166 0)
(9.25409 0.397732 0)
(9.17397 0.414968 0)
(9.089 0.432861 0)
(8.99882 0.451386 0)
(8.90306 0.47051 0)
(8.80133 0.490189 0)
(8.69319 0.510365 0)
(8.57818 0.530966 0)
(8.45583 0.551902 0)
(8.32562 0.573064 0)
(8.187 0.594321 0)
(8.03939 0.61552 0)
(7.88222 0.636479 0)
(7.71484 0.656985 0)
(7.53661 0.67679 0)
(7.34688 0.695611 0)
(7.14499 0.713127 0)
(6.9303 0.728983 0)
(6.70217 0.742787 0)
(6.46004 0.754112 0)
(6.20339 0.762493 0)
(5.93185 0.767439 0)
(5.64519 0.768422 0)
(5.34339 0.764886 0)
(5.02669 0.756271 0)
(4.69567 0.742027 0)
(4.35134 0.721642 0)
(3.99527 0.694676 0)
(3.62965 0.660829 0)
(3.25747 0.620052 0)
(2.88269 0.572655 0)
(2.51048 0.519462 0)
(2.14727 0.461961 0)
(1.8006 0.402363 0)
(1.47826 0.343562 0)
(1.18728 0.288572 0)
(0.932122 0.239448 0)
(0.713708 0.197328 0)
(0.527597 0.161241 0)
(0.368058 0.129022 0)
(10.0001 0.0253328 0)
(10.0092 0.0742935 0)
(10.0261 0.119441 0)
(10.0502 0.15859 0)
(10.0797 0.190697 0)
(10.1121 0.216194 0)
(10.1451 0.236533 0)
(10.1773 0.253357 0)
(10.2083 0.267849 0)
(10.2386 0.280506 0)
(10.2688 0.291336 0)
(10.2993 0.300192 0)
(10.3301 0.306987 0)
(10.3611 0.311762 0)
(10.3921 0.314644 0)
(10.4226 0.315787 0)
(10.4527 0.315326 0)
(10.482 0.31337 0)
(10.5106 0.310011 0)
(10.5382 0.305348 0)
(10.5649 0.299493 0)
(10.5905 0.29258 0)
(10.6148 0.28476 0)
(10.6378 0.2762 0)
(10.6594 0.267078 0)
(10.6795 0.257571 0)
(10.6982 0.247856 0)
(10.7155 0.238099 0)
(10.7314 0.228452 0)
(10.746 0.219048 0)
(10.7594 0.209998 0)
(10.7716 0.201392 0)
(10.7829 0.193295 0)
(10.7933 0.185751 0)
(10.8029 0.178784 0)
(10.8119 0.172399 0)
(10.8202 0.166586 0)
(10.8281 0.161321 0)
(10.8355 0.156573 0)
(10.8426 0.152305 0)
(10.8494 0.14848 0)
(10.8559 0.145064 0)
(10.8621 0.142019 0)
(10.8681 0.139311 0)
(10.874 0.136906 0)
(10.8796 0.134771 0)
(10.8851 0.132873 0)
(10.8904 0.131185 0)
(10.8955 0.129681 0)
(10.9004 0.128338 0)
(10.9052 0.127136 0)
(10.9098 0.126058 0)
(10.9142 0.12509 0)
(10.9185 0.12422 0)
(10.9225 0.123438 0)
(10.9264 0.122735 0)
(10.93 0.122107 0)
(10.9334 0.121547 0)
(10.9366 0.121053 0)
(10.9396 0.120622 0)
(10.9424 0.120253 0)
(10.9449 0.119946 0)
(10.9472 0.119701 0)
(10.9492 0.11952 0)
(10.951 0.119403 0)
(10.9526 0.119353 0)
(10.9538 0.119373 0)
(10.9549 0.119465 0)
(10.9556 0.119632 0)
(10.9561 0.119879 0)
(10.9563 0.12021 0)
(10.9562 0.120628 0)
(10.9558 0.121138 0)
(10.9551 0.121745 0)
(10.9541 0.122455 0)
(10.9528 0.123271 0)
(10.9512 0.124201 0)
(10.9492 0.125251 0)
(10.9469 0.126426 0)
(10.9443 0.127734 0)
(10.9413 0.129182 0)
(10.938 0.130777 0)
(10.9342 0.132528 0)
(10.9301 0.134442 0)
(10.9256 0.13653 0)
(10.9206 0.138801 0)
(10.9152 0.141265 0)
(10.9094 0.143932 0)
(10.9031 0.146814 0)
(10.8962 0.149922 0)
(10.8889 0.15327 0)
(10.881 0.15687 0)
(10.8726 0.160737 0)
(10.8636 0.164886 0)
(10.8539 0.169331 0)
(10.8436 0.17409 0)
(10.8326 0.17918 0)
(10.8209 0.184618 0)
(10.8084 0.190425 0)
(10.7951 0.19662 0)
(10.781 0.203225 0)
(10.766 0.21026 0)
(10.75 0.217749 0)
(10.733 0.225717 0)
(10.7149 0.234187 0)
(10.6957 0.243186 0)
(10.6753 0.25274 0)
(10.6536 0.262877 0)
(10.6306 0.273625 0)
(10.6061 0.285014 0)
(10.58 0.297073 0)
(10.5523 0.309832 0)
(10.5228 0.323321 0)
(10.4913 0.33757 0)
(10.4579 0.352609 0)
(10.4223 0.368468 0)
(10.3843 0.385173 0)
(10.3438 0.402752 0)
(10.3006 0.421228 0)
(10.2545 0.440623 0)
(10.2053 0.460955 0)
(10.1526 0.482236 0)
(10.0963 0.504475 0)
(10.0361 0.527674 0)
(9.97161 0.551824 0)
(9.90251 0.57691 0)
(9.82841 0.602904 0)
(9.74891 0.629765 0)
(9.66354 0.657437 0)
(9.57182 0.685846 0)
(9.47321 0.714897 0)
(9.36712 0.744473 0)
(9.25293 0.774429 0)
(9.12995 0.804593 0)
(8.99743 0.834765 0)
(8.85459 0.864706 0)
(8.70059 0.894143 0)
(8.53453 0.922763 0)
(8.35547 0.950207 0)
(8.16244 0.976074 0)
(7.95442 0.999912 0)
(7.7304 1.02122 0)
(7.48936 1.03943 0)
(7.2303 1.05392 0)
(6.95232 1.06398 0)
(6.65461 1.06886 0)
(6.33655 1.06777 0)
(5.99775 1.05988 0)
(5.63821 1.04438 0)
(5.25836 1.02045 0)
(4.85925 0.98736 0)
(4.44276 0.944521 0)
(4.01177 0.891503 0)
(3.57034 0.828201 0)
(3.12395 0.755064 0)
(2.67996 0.673402 0)
(2.24783 0.585705 0)
(1.83918 0.495785 0)
(1.4659 0.40875 0)
(1.13749 0.329762 0)
(10.0001 0.0208372 0)
(10.007 0.0615065 0)
(10.02 0.0997298 0)
(10.0387 0.134105 0)
(10.0623 0.163618 0)
(10.0892 0.188088 0)
(10.1177 0.208102 0)
(10.1466 0.224644 0)
(10.1751 0.238664 0)
(10.2033 0.250754 0)
(10.2314 0.261114 0)
(10.2596 0.269719 0)
(10.2882 0.276497 0)
(10.317 0.281438 0)
(10.3459 0.284619 0)
(10.3745 0.286169 0)
(10.4028 0.286221 0)
(10.4305 0.284897 0)
(10.4575 0.282302 0)
(10.4839 0.278532 0)
(10.5093 0.273693 0)
(10.5339 0.2679 0)
(10.5574 0.261284 0)
(10.5798 0.253989 0)
(10.6011 0.246166 0)
(10.6211 0.237968 0)
(10.64 0.229547 0)
(10.6576 0.221046 0)
(10.6741 0.212597 0)
(10.6895 0.204318 0)
(10.7038 0.196308 0)
(10.7172 0.188648 0)
(10.7297 0.1814 0)
(10.7415 0.174609 0)
(10.7526 0.1683 0)
(10.7631 0.162482 0)
(10.7731 0.157155 0)
(10.7826 0.152303 0)
(10.7918 0.147907 0)
(10.8007 0.143941 0)
(10.8093 0.140378 0)
(10.8177 0.137187 0)
(10.8258 0.13434 0)
(10.8338 0.131807 0)
(10.8417 0.129558 0)
(10.8494 0.127566 0)
(10.857 0.125802 0)
(10.8645 0.124242 0)
(10.8719 0.122862 0)
(10.8792 0.121643 0)
(10.8864 0.120565 0)
(10.8935 0.119613 0)
(10.9005 0.118775 0)
(10.9073 0.118039 0)
(10.9141 0.117396 0)
(10.9207 0.116839 0)
(10.9272 0.116361 0)
(10.9336 0.115958 0)
(10.9398 0.115626 0)
(10.9459 0.115364 0)
(10.9519 0.11517 0)
(10.9577 0.115043 0)
(10.9633 0.114985 0)
(10.9688 0.114996 0)
(10.9741 0.115077 0)
(10.9793 0.115231 0)
(10.9843 0.11546 0)
(10.9891 0.115768 0)
(10.9938 0.116157 0)
(10.9982 0.116631 0)
(11.0025 0.117196 0)
(11.0066 0.117854 0)
(11.0104 0.11861 0)
(11.0141 0.11947 0)
(11.0176 0.12044 0)
(11.0208 0.121524 0)
(11.0238 0.122729 0)
(11.0266 0.124062 0)
(11.0292 0.125529 0)
(11.0315 0.127138 0)
(11.0336 0.128897 0)
(11.0354 0.130813 0)
(11.0369 0.132897 0)
(11.0382 0.135156 0)
(11.0392 0.137601 0)
(11.0399 0.140242 0)
(11.0402 0.143091 0)
(11.0403 0.146158 0)
(11.04 0.149457 0)
(11.0394 0.153 0)
(11.0385 0.156801 0)
(11.0371 0.160875 0)
(11.0354 0.165237 0)
(11.0332 0.169904 0)
(11.0307 0.174893 0)
(11.0276 0.180222 0)
(11.0242 0.18591 0)
(11.0202 0.191978 0)
(11.0157 0.198448 0)
(11.0106 0.205341 0)
(11.005 0.212681 0)
(10.9987 0.220494 0)
(10.9919 0.228805 0)
(10.9843 0.237641 0)
(10.9761 0.247032 0)
(10.967 0.257007 0)
(10.9572 0.267597 0)
(10.9466 0.278834 0)
(10.935 0.290753 0)
(10.9224 0.303388 0)
(10.9089 0.316775 0)
(10.8942 0.330951 0)
(10.8784 0.345954 0)
(10.8613 0.361823 0)
(10.8429 0.378596 0)
(10.8231 0.396313 0)
(10.8018 0.415013 0)
(10.7787 0.434734 0)
(10.7539 0.455516 0)
(10.7272 0.477394 0)
(10.6984 0.500404 0)
(10.6674 0.524577 0)
(10.6339 0.549942 0)
(10.5978 0.576524 0)
(10.5588 0.604339 0)
(10.5166 0.633402 0)
(10.4711 0.663713 0)
(10.4217 0.695266 0)
(10.3683 0.728042 0)
(10.3104 0.762008 0)
(10.2476 0.797113 0)
(10.1794 0.833288 0)
(10.1052 0.87044 0)
(10.0244 0.908458 0)
(9.93647 0.947195 0)
(9.84055 0.986483 0)
(9.73588 1.02611 0)
(9.62158 1.06583 0)
(9.49667 1.10535 0)
(9.36013 1.14432 0)
(9.2108 1.18237 0)
(9.04748 1.21902 0)
(8.86885 1.25376 0)
(8.67355 1.28601 0)
(8.46015 1.31511 0)
(8.22718 1.34033 0)
(7.97315 1.36085 0)
(7.69662 1.37579 0)
(7.3962 1.38419 0)
(7.07063 1.385 0)
(6.71891 1.37712 0)
(6.34039 1.35936 0)
(5.93493 1.33054 0)
(5.50306 1.28952 0)
(5.04618 1.23527 0)
(4.56696 1.16707 0)
(4.06961 1.08461 0)
(3.56029 0.988142 0)
(3.04737 0.878942 0)
(2.54195 0.759944 0)
(10.0001 0.0174421 0)
(10.0056 0.0516773 0)
(10.016 0.0842469 0)
(10.0311 0.11422 0)
(10.0503 0.140791 0)
(10.0729 0.163587 0)
(10.0976 0.182742 0)
(10.1233 0.198763 0)
(10.1494 0.212286 0)
(10.1755 0.223834 0)
(10.2017 0.233692 0)
(10.2281 0.241938 0)
(10.2547 0.248554 0)
(10.2816 0.253529 0)
(10.3085 0.256903 0)
(10.3354 0.25877 0)
(10.3621 0.259248 0)
(10.3883 0.258454 0)
(10.4139 0.256496 0)
(10.4389 0.253472 0)
(10.4632 0.24948 0)
(10.4867 0.244626 0)
(10.5093 0.239023 0)
(10.5309 0.232795 0)
(10.5516 0.226073 0)
(10.5712 0.218989 0)
(10.5897 0.211674 0)
(10.6072 0.204253 0)
(10.6236 0.19684 0)
(10.6391 0.189538 0)
(10.6537 0.182436 0)
(10.6673 0.175608 0)
(10.6802 0.169111 0)
(10.6924 0.162988 0)
(10.704 0.157267 0)
(10.715 0.151961 0)
(10.7255 0.147074 0)
(10.7356 0.1426 0)
(10.7454 0.138527 0)
(10.7548 0.134837 0)
(10.7639 0.13151 0)
(10.7729 0.128521 0)
(10.7816 0.125847 0)
(10.7902 0.123462 0)
(10.7986 0.121343 0)
(10.8069 0.119463 0)
(10.8151 0.117801 0)
(10.8232 0.116334 0)
(10.8312 0.115042 0)
(10.8391 0.113907 0)
(10.8469 0.112912 0)
(10.8547 0.112044 0)
(10.8623 0.111291 0)
(10.8699 0.110643 0)
(10.8774 0.110091 0)
(10.8848 0.109628 0)
(10.8921 0.109248 0)
(10.8993 0.108948 0)
(10.9065 0.108723 0)
(10.9135 0.108572 0)
(10.9204 0.108494 0)
(10.9272 0.108487 0)
(10.9339 0.108553 0)
(10.9405 0.108692 0)
(10.9469 0.108906 0)
(10.9533 0.109197 0)
(10.9595 0.109567 0)
(10.9656 0.11002 0)
(10.9716 0.110558 0)
(10.9775 0.111187 0)
(10.9832 0.111909 0)
(10.9887 0.112729 0)
(10.9942 0.113653 0)
(10.9994 0.114685 0)
(11.0046 0.115831 0)
(11.0095 0.117097 0)
(11.0144 0.11849 0)
(11.019 0.120016 0)
(11.0235 0.121683 0)
(11.0278 0.123498 0)
(11.0319 0.12547 0)
(11.0359 0.127607 0)
(11.0397 0.129918 0)
(11.0432 0.132414 0)
(11.0466 0.135104 0)
(11.0497 0.137999 0)
(11.0527 0.141112 0)
(11.0554 0.144454 0)
(11.0578 0.148038 0)
(11.0601 0.151879 0)
(11.0621 0.15599 0)
(11.0638 0.160387 0)
(11.0652 0.165087 0)
(11.0664 0.170107 0)
(11.0672 0.175465 0)
(11.0678 0.181181 0)
(11.068 0.187274 0)
(11.0679 0.193767 0)
(11.0674 0.200683 0)
(11.0666 0.208044 0)
(11.0654 0.215877 0)
(11.0638 0.224208 0)
(11.0617 0.233064 0)
(11.0592 0.242477 0)
(11.0562 0.252475 0)
(11.0528 0.263091 0)
(11.0488 0.274361 0)
(11.0443 0.286317 0)
(11.0391 0.298998 0)
(11.0334 0.312443 0)
(11.027 0.32669 0)
(11.02 0.341781 0)
(11.0122 0.35776 0)
(11.0036 0.374669 0)
(10.9942 0.392555 0)
(10.9839 0.411463 0)
(10.9727 0.43144 0)
(10.9604 0.452533 0)
(10.9471 0.474792 0)
(10.9326 0.498262 0)
(10.9168 0.522992 0)
(10.8996 0.549028 0)
(10.881 0.576413 0)
(10.8607 0.605189 0)
(10.8387 0.635396 0)
(10.8147 0.667068 0)
(10.7887 0.700233 0)
(10.7602 0.734912 0)
(10.7292 0.771121 0)
(10.6954 0.808861 0)
(10.6584 0.848126 0)
(10.6179 0.88889 0)
(10.5735 0.931118 0)
(10.5248 0.974751 0)
(10.4712 1.01971 0)
(10.4122 1.06589 0)
(10.3471 1.11316 0)
(10.2753 1.16135 0)
(10.1958 1.21026 0)
(10.1078 1.25963 0)
(10.0103 1.30916 0)
(9.90211 1.3585 0)
(9.78203 1.40723 0)
(9.64868 1.45486 0)
(9.50057 1.50084 0)
(9.33609 1.5445 0)
(9.1535 1.58512 0)
(8.95095 1.62185 0)
(8.72653 1.65375 0)
(8.47819 1.67979 0)
(8.20396 1.6988 0)
(7.90183 1.70951 0)
(7.56997 1.71057 0)
(7.2067 1.70047 0)
(6.81074 1.6777 0)
(6.38136 1.64063 0)
(5.91865 1.58775 0)
(5.42376 1.51762 0)
(4.89924 1.42917 0)
(4.34969 1.32204 0)
(10 0.0147648 0)
(10.0046 0.043839 0)
(10.0132 0.0717495 0)
(10.0257 0.0978097 0)
(10.0419 0.121429 0)
(10.0611 0.142216 0)
(10.0826 0.160098 0)
(10.1056 0.175289 0)
(10.1293 0.188168 0)
(10.1535 0.199123 0)
(10.1779 0.208434 0)
(10.2025 0.216238 0)
(10.2274 0.222573 0)
(10.2526 0.227448 0)
(10.278 0.23089 0)
(10.3033 0.232964 0)
(10.3285 0.233765 0)
(10.3533 0.233397 0)
(10.3778 0.231963 0)
(10.4016 0.22956 0)
(10.4249 0.226281 0)
(10.4474 0.222223 0)
(10.4692 0.217487 0)
(10.4901 0.21218 0)
(10.5102 0.206415 0)
(10.5293 0.200307 0)
(10.5475 0.193967 0)
(10.5648 0.187504 0)
(10.5811 0.181018 0)
(10.5966 0.174599 0)
(10.6112 0.168326 0)
(10.6251 0.162265 0)
(10.6382 0.156469 0)
(10.6506 0.150979 0)
(10.6624 0.145822 0)
(10.6737 0.141016 0)
(10.6845 0.136568 0)
(10.6949 0.132478 0)
(10.705 0.128739 0)
(10.7147 0.125339 0)
(10.7241 0.122262 0)
(10.7333 0.11949 0)
(10.7423 0.117004 0)
(10.7511 0.114783 0)
(10.7597 0.112805 0)
(10.7683 0.111051 0)
(10.7766 0.1095 0)
(10.7849 0.108134 0)
(10.7931 0.106935 0)
(10.8012 0.105887 0)
(10.8092 0.104977 0)
(10.8171 0.104192 0)
(10.8249 0.10352 0)
(10.8326 0.102954 0)
(10.8403 0.102484 0)
(10.8479 0.102105 0)
(10.8553 0.101811 0)
(10.8627 0.101598 0)
(10.8701 0.101464 0)
(10.8773 0.101405 0)
(10.8844 0.101422 0)
(10.8915 0.101513 0)
(10.8985 0.101678 0)
(10.9053 0.10192 0)
(10.9121 0.102239 0)
(10.9188 0.102638 0)
(10.9253 0.103119 0)
(10.9318 0.103684 0)
(10.9381 0.104339 0)
(10.9444 0.105086 0)
(10.9505 0.105929 0)
(10.9565 0.106874 0)
(10.9624 0.107925 0)
(10.9682 0.109088 0)
(10.9739 0.110368 0)
(10.9794 0.111772 0)
(10.9848 0.113306 0)
(10.9901 0.114978 0)
(10.9952 0.116795 0)
(11.0002 0.118764 0)
(11.0051 0.120895 0)
(11.0098 0.123195 0)
(11.0144 0.125676 0)
(11.0188 0.128346 0)
(11.023 0.131217 0)
(11.0271 0.134299 0)
(11.031 0.137606 0)
(11.0348 0.141148 0)
(11.0383 0.14494 0)