/*--------------------------------*- C++ -*----------------------------------*\
| =========                 |                                                 |
| \\      /  F ield         | OpenFOAM: The Open Source CFD Toolbox           |
|  \\    /   O peration     | Version:  2306                                  |
|   \\  /    A nd           | Website:  www.openfoam.com                      |
|    \\/     M anipulation  |                                                 |
\*---------------------------------------------------------------------------*/
FoamFile
{
    version     2.0;
    format      ascii;
    arch        "LSB;label=32;scalar=64";
    class       volScalarField;
    location    "0.475";
    object      p;
}
// * * * * * * * * * * * * * * * * * * * * * * * * * * * * * * * * * * * * * //

dimensions      [0 2 -2 0 0 0 0];

internalField   nonuniform List<scalar> 
4400
(
453.341
452.326
451.419
450.746
450.297
449.99
449.746
449.517
449.284
449.043
448.797
448.55
448.303
448.057
447.813
447.569
447.326
447.083
446.839
446.595
446.35
446.106
445.862
445.619
445.377
445.136
444.898
444.662
444.429
444.199
443.974
443.753
443.538
443.328
443.126
442.93
442.743
442.564
442.395
442.236
442.087
441.95
441.825
441.712
441.612
441.526
441.453
441.393
441.347
441.314
441.293
441.282
441.281
441.287
441.297
441.306
441.31
441.303
441.279
441.23
441.15
441.034
440.881
440.706
440.559
440.481
440.55
440.839
441.379
442.136
443.017
443.729
444.012
443.788
443.666
443.533
443.838
443.953
443.755
443.811
451.879
451.537
451.105
450.663
450.272
449.947
449.679
449.444
449.22
448.995
448.764
448.527
448.286
448.044
447.8
447.558
447.315
447.073
446.83
446.587
446.344
446.101
445.858
445.616
445.374
445.134
444.896
444.661
444.428
444.199
443.973
443.752
443.537
443.327
443.124
442.928
442.739
442.559
442.388
442.227
442.076
441.937
441.808
441.692
441.589
441.499
441.421
441.358
441.307
441.269
441.243
441.228
441.222
441.223
441.228
441.233
441.234
441.225
441.198
441.15
441.07
440.957
440.809
440.642
440.493
440.425
440.516
440.858
441.5
442.439
443.554
444.492
444.535
443.712
443.255
442.965
443.069
443.556
443.715
443.843
451.333
451.168
450.91
450.592
450.259
449.944
449.663
449.413
449.184
448.962
448.739
448.51
448.275
448.035
447.794
447.551
447.309
447.066
446.824
446.582
446.34
446.098
445.855
445.614
445.373
445.133
444.896
444.66
444.427
444.197
443.972
443.75
443.533
443.322
443.117
442.918
442.726
442.542
442.367
442.201
442.043
441.897
441.76
441.634
441.519
441.416
441.324
441.244
441.175
441.118
441.07
441.032
441.002
440.976
440.955
440.931
440.907
440.872
440.826
440.763
440.68
440.582
440.468
440.365
440.301
440.343
440.535
440.92
441.499
442.246
443.031
443.604
443.793
443.629
443.638
443.732
444.047
444.704
444.006
443.094
450.918
450.818
450.644
450.411
450.146
449.873
449.611
449.366
449.136
448.915
448.696
448.473
448.245
448.012
447.775
447.535
447.295
447.053
446.812
446.571
446.33
446.089
445.847
445.607
445.366
445.127
444.889
444.654
444.421
444.19
443.963
443.74
443.522
443.308
443.1
442.897
442.701
442.512
442.33
442.156
441.991
441.833
441.685
441.547
441.417
441.299
441.188
441.089
440.998
440.917
440.842
440.776
440.714
440.656
440.601
440.543
440.483
440.415
440.341
440.254
440.162
440.064
439.973
439.907
439.891
439.963
440.143
440.447
440.869
441.386
441.933
442.413
442.77
442.981
443.1
443.143
443.116
443.056
442.772
442.927
450.619
450.549
450.424
450.25
450.038
449.806
449.568
449.334
449.106
448.886
448.667
448.447
448.223
447.994
447.761
447.525
447.286
447.046
446.806
446.565
446.324
446.083
445.842
445.601
445.361
445.121
444.883
444.647
444.412
444.181
443.952
443.727
443.506
443.288
443.077
442.869
442.669
442.473
442.285
442.102
441.928
441.76
441.6
441.449
441.304
441.169
441.04
440.92
440.805
440.7
440.597
440.503
440.407
440.317
440.223
440.131
440.032
439.93
439.822
439.707
439.593
439.478
439.383
439.306
439.282
439.308
439.418
439.6
439.873
440.209
440.589
440.982
441.311
441.591
441.733
441.854
441.944
442.148
442.509
442.923
450.4
450.348
450.251
450.112
449.938
449.737
449.522
449.301
449.079
448.86
448.642
448.423
448.201
447.976
447.746
447.512
447.275
447.036
446.797
446.556
446.316
446.074
445.833
445.592
445.352
445.111
444.873
444.635
444.399
444.167
443.935
443.708
443.484
443.263
443.047
442.835
442.628
442.427
442.231
442.04
441.857
441.677
441.507
441.34
441.182
441.029
440.883
440.741
440.605
440.474
440.345
440.22
440.094
439.971
439.842
439.714
439.578
439.44
439.297
439.148
439.003
438.858
438.729
438.617
438.539
438.499
438.51
438.579
438.705
438.888
439.112
439.353
439.592
439.791
439.969
440.143
440.358
440.721
441.186
441.742
450.242
450.198
450.118
450.001
449.85
449.673
449.477
449.269
449.055
448.838
448.621
448.403
448.182
447.958
447.73
447.499
447.264
447.027
446.788
446.547
446.306
446.065
445.823
445.582
445.34
445.1
444.86
444.621
444.383
444.149
443.914
443.685
443.457
443.233
443.012
442.795
442.582
442.374
442.171
441.971
441.779
441.588
441.406
441.225
441.054
440.882
440.72
440.556
440.4
440.243
440.09
439.935
439.781
439.623
439.462
439.3
439.126
438.955
438.768
438.59
438.396
438.219
438.034
437.873
437.721
437.602
437.511
437.459
437.453
437.476
437.548
437.628
437.733
437.834
437.969
438.106
438.381
438.685
439.219
439.856
450.13
450.092
450.021
449.917
449.782
449.621
449.439
449.241
449.034
448.821
448.606
448.388
448.167
447.944
447.717
447.488
447.254
447.018
446.779
446.539
446.297
446.055
445.813
445.571
445.328
445.086
444.845
444.604
444.366
444.127
443.892
443.658
443.427
443.197
442.973
442.749
442.532
442.316
442.105
441.897
441.694
441.494
441.299
441.106
440.92
440.732
440.551
440.369
440.191
440.012
439.832
439.652
439.467
439.281
439.086
438.891
438.679
438.473
438.246
438.025
437.788
437.558
437.318
437.088
436.863
436.649
436.456
436.285
436.128
436.015
435.909
435.833
435.792
435.748
435.781
435.835
436.004
436.276
436.721
437.37
450.057
450.023
449.957
449.861
449.735
449.585
449.411
449.221
449.019
448.809
448.595
448.376
448.156
447.933
447.707
447.478
447.245
447.009
446.771
446.53
446.288
446.045
445.802
445.559
445.314
445.071
444.828
444.585
444.345
444.103
443.865
443.627
443.392
443.159
442.929
442.699
442.477
442.253
442.035
441.818
441.605
441.396
441.187
440.983
440.781
440.579
440.379
440.181
439.979
439.781
439.575
439.371
439.157
438.941
438.717
438.484
438.243
437.99
437.731
437.457
437.178
436.886
436.586
436.285
435.973
435.668
435.365
435.058
434.777
434.487
434.226
433.98
433.737
433.572
433.391
433.339
433.327
433.483
433.795
434.329
450.021
449.989
449.926
449.833
449.711
449.565
449.396
449.209
449.01
448.802
448.588
448.369
448.149
447.926
447.7
447.471
447.238
447.002
446.763
446.521
446.279
446.034
445.79
445.545
445.299
445.055
444.809
444.564
444.321
444.076
443.835
443.594
443.354
443.117
442.881
442.647
442.417
442.186
441.961
441.735
441.512
441.293
441.072
440.858
440.638
440.425
440.206
439.992
439.769
439.551
439.321
439.092
438.853
438.607
438.354
438.087
437.81
437.521
437.217
436.896
436.568
436.211
435.853
435.466
435.078
434.662
434.25
433.817
433.371
432.942
432.482
432.047
431.629
431.216
430.87
430.575
430.375
430.318
430.421
430.771
450.019
449.989
449.925
449.832
449.71
449.564
449.394
449.208
449.008
448.8
448.585
448.366
448.146
447.922
447.696
447.466
447.232
446.995
446.755
446.513
446.269
446.024
445.778
445.532
445.283
445.037
444.789
444.542
444.296
444.047
443.804
443.557
443.314
443.072
442.83
442.592
442.354
442.117
441.884
441.649
441.417
441.189
440.955
440.73
440.496
440.268
440.034
439.801
439.561
439.324
439.069
438.822
438.552
438.282
437.999
437.696
437.39
437.058
436.714
436.344
435.963
435.546
435.117
434.662
434.165
433.669
433.121
432.551
431.974
431.336
430.716
430.054
429.403
428.756
428.149
427.572
427.127
426.766
426.607
426.68
450.052
450.021
449.956
449.859
449.732
449.58
449.406
449.216
449.014
448.803
448.587
448.367
448.146
447.922
447.695
447.464
447.228
446.99
446.749
446.505
446.26
446.012
445.766
445.516
445.267
445.018
444.767
444.518
444.268
444.016
443.77
443.518
443.271
443.024
442.776
442.534
442.287
442.046
441.804
441.56
441.321
441.08
440.837
440.601
440.352
440.113
439.863
439.613
439.358
439.097
438.826
438.554
438.261
437.965
437.654
437.319
436.979
436.61
436.218
435.813
435.365
434.898
434.402
433.853
433.292
432.66
432.013
431.3
430.541
429.755
428.897
428.004
427.111
426.158
425.228
424.363
423.521
422.835
422.322
422.014
450.122
450.088
450.018
449.913
449.777
449.614
449.43
449.233
449.026
448.812
448.593
448.373
448.151
447.925
447.697
447.463
447.227
446.986
446.743
446.497
446.251
446.001
445.754
445.502
445.25
444.999
444.744
444.494
444.237
443.985
443.733
443.477
443.227
442.973
442.721
442.472
442.219
441.971
441.721
441.47
441.223
440.971
440.718
440.471
440.208
439.959
439.693
439.426
439.161
438.873
438.59
438.295
437.976
437.663
437.316
436.956
436.586
436.171
435.752
435.286
434.802
434.262
433.706
433.088
432.414
431.708
430.919
430.059
429.159
428.151
427.066
425.96
424.699
423.466
422.165
420.84
419.631
418.452
417.474
416.774
450.232
450.192
450.113
449.995
449.843
449.663
449.466
449.258
449.043
448.825
448.605
448.383
448.16
447.933
447.702
447.466
447.226
446.984
446.738
446.491
446.243
445.99
445.741
445.486
445.233
444.978
444.721
444.467
444.207
443.952
443.694
443.435
443.18
442.921
442.664
442.41
442.147
441.897
441.635
441.378
441.125
440.858
440.604
440.338
440.067
439.81
439.522
439.249
438.964
438.656
438.366
438.039
437.707
437.37
436.995
436.607
436.213
435.752
435.302
434.798
434.246
433.677
433.037
432.343
431.601
430.78
429.861
428.896
427.779
426.605
425.285
423.831
422.347
420.641
418.899
417.17
415.316
413.584
412.037
410.688
450.389
450.34
450.245
450.104
449.928
449.725
449.509
449.287
449.064
448.843
448.62
448.399
448.174
447.945
447.709
447.471
447.227
446.983
446.734
446.485
446.235
445.98
445.73
445.47
445.217
444.957
444.698
444.44
444.176
443.919
443.654
443.393
443.131
442.867
442.605
442.345
442.077
441.82
441.549
441.287
441.024
440.747
440.489
440.208
439.93
439.661
439.355
439.078
438.769
438.451
438.147
437.793
437.451
437.09
436.684
436.287
435.846
435.365
434.88
434.324
433.745
433.111
432.408
431.672
430.803
429.917
428.905
427.727
426.535
425.12
423.51
421.863
419.907
417.788
415.604
413.158
410.665
408.205
405.785
403.627
450.607
450.54
450.417
450.239
450.027
449.792
449.553
449.318
449.088
448.865
448.641
448.419
448.19
447.959
447.718
447.477
447.228
446.983
446.731
446.48
446.228
445.97
445.718
445.454
445.201
444.934
444.676
444.41
444.146
443.882
443.615
443.349
443.082
442.812
442.546
442.279
442.004
441.744
441.461
441.198
440.922
440.638
440.375
440.075
439.802
439.509
439.196
438.914
438.578
438.258
437.938
437.555
437.214
436.823
436.39
435.996
435.495
435.015
434.481
433.89
433.285
432.577
431.861
431.013
430.104
429.128
427.964
426.738
425.36
423.708
421.958
419.922
417.589
415.031
412.164
409.013
405.688
402.122
398.643
395.335
450.907
450.808
450.634
450.398
450.132
449.858
449.595
449.347
449.115
448.891
448.667
448.441
448.208
447.971
447.725
447.48
447.228
446.982
446.725
446.475
446.218
445.961
445.705
445.438
445.183
444.91
444.652
444.378
444.115
443.843
443.574
443.301
443.032
442.756
442.484
442.212
441.926
441.668
441.367
441.11
440.814
440.531
440.26
439.942
439.676
439.356
439.047
438.754
438.393
438.083
437.726
437.341
436.982
436.569
436.123
435.712
435.177
434.689
434.109
433.5
432.861
432.108
431.354
430.448
429.45
428.436
427.133
425.798
424.366
422.477
420.499
418.24
415.479
412.387
408.855
404.844
400.235
395.414
390.38
385.221
451.322
451.156
450.898
450.578
450.245
449.927
449.645
449.393
449.161
448.935
448.708
448.474
448.235
447.989
447.739
447.49
447.235
446.987
446.727
446.476
446.214
445.956
445.694
445.428
445.165
444.893
444.628
444.352
444.085
443.806
443.538
443.252
442.988
442.696
442.429
442.143
441.857
441.59
441.282
441.023
440.714
440.432
440.144
439.828
439.549
439.221
438.91
438.598
438.242
437.911
437.555
437.136
436.801
436.314
435.924
435.425
434.915
434.421
433.738
433.225
432.447
431.697
430.986
429.868
428.989
427.793
426.426
425.089
423.445
421.433
419.365
416.719
413.694
410.174
405.896
400.862
394.815
387.978
380.234
373.071
451.867
451.524
451.092
450.648
450.257
449.93
449.659
449.422
449.195
448.966
448.731
448.489
448.243
447.993
447.742
447.492
447.235
446.987
446.725
446.472
446.208
445.948
445.682
445.415
445.147
444.874
444.603
444.327
444.052
443.772
443.499
443.207
442.943
442.638
442.377
442.074
441.795
441.513
441.204
440.94
440.619
440.341
440.037
439.721
439.433
439.093
438.782
438.452
438.101
437.756
437.402
436.972
436.643
436.137
435.743
435.236
434.709
434.205
433.508
432.966
432.137
431.436
430.536
429.602
428.559
427.319
425.991
424.563
422.546
420.878
418.158
415.676
412.365
408.46
403.286
398.007
389.582
380.217
367.541
355.402
453.326
452.314
451.407
450.732
450.281
449.972
449.726
449.495
449.258
449.014
448.763
448.51
448.257
448.005
447.751
447.501
447.244
446.992
446.731
446.474
446.21
445.945
445.68
445.409
445.14
444.866
444.591
444.316
444.034
443.758
443.474
443.192
442.91
442.619
442.34
442.047
441.761
441.473
441.175
440.89
440.586
440.292
439.993
439.679
439.38
439.056
438.732
438.414
438.047
437.711
437.336
436.93
436.564
436.082
435.673
435.153
434.662
434.087
433.508
432.805
432.163
431.227
430.475
429.511
428.358
427.237
425.943
424.105
422.687
420.387
418.018
415.235
412.131
407.21
403.052
395.891
387.763
375.07
358.386
332.658
444.063
444.363
444.747
445.148
445.369
445.44
445.359
445.175
444.906
444.537
444.106
443.753
443.039
442.077
441.389
441.317
442.076
443.608
445.159
446.791
444.246
444.42
444.709
445.131
445.441
445.531
445.439
445.236
445.021
444.748
444.134
443.35
442.399
441.313
440.548
440.331
440.978
442.525
443.883
445.336
442.988
443.617
444.701
445.366
445.633
445.738
445.673
445.459
445.091
444.531
443.619
442.391
441.096
439.945
438.985
438.427
438.83
440.43
441.717
442.891
443.812
444.768
444.462
444.612
445.969
446.348
446.343
445.853
445.371
444.503
443.156
441.416
439.769
438.599
437.752
437.339
437.464
438.927
440.237
441.283
443.445
443.638
444.377
446.674
447.307
446.898
447.188
446.406
445.874
444.522
442.577
440.364
438.554
437.564
436.88
436.562
436.904
438.302
439.31
440.181
442.463
443.384
444.88
446.405
447.477
448.859
448.629
446.926
446.06
444.25
442.109
439.804
437.829
437.016
436.527
436.886
436.96
438.266
438.8
439.613
440.76
441.989
443.461
445.054
446.704
447.896
448.354
447.993
446.345
444.077
441.889
439.702
437.831
436.63
435.76
435.582
436.079
437.256
438.649
440.018
438.296
439.479
440.932
442.55
444.22
445.655
446.563
446.602
445.676
443.877
441.41
439.228
437.689
437.357
436.86
437.205
437.662
438.351
439.359
441.306
435.132
436.181
437.495
439.025
440.608
442.13
443.289
443.758
443.385
442.256
440.56
438.465
435.973
434.157
432.945
431.864
431.939
433.844
436.668
440.198
431.341
432.223
433.34
434.693
436.226
437.699
439.003
439.956
440.325
439.94
438.798
437.767
438.047
437.91
437.878
440.708
443.67
445.463
447.115
449.59
426.987
427.622
428.543
429.726
431.15
432.658
434.166
435.521
436.876
438.712
441.553
444.786
445.205
433.761
424.129
425.522
434.25
441.135
445.674
448.555
422.058
422.36
423.069
424.157
425.471
427.118
428.996
430.838
432.626
433.931
434.339
432.867
428.76
425.113
427.279
431.676
437.928
445.173
451.004
454.57
416.32
416.375
416.837
417.752
419.209
421.004
423.147
425.714
428.316
430.378
431.497
432.104
432.584
434
437.661
442.095
446.371
449.258
451.407
452.283
409.754
409.339
409.53
410.45
412.043
414.235
416.654
419.011
421.598
424.531
427.55
430.715
433.721
436.059
438.282
440.984
444.841
450.157
453.925
455.488
402.012
400.979
400.872
401.678
403.516
406.672
410.639
414.571
417.883
420.738
423.723
427.317
431.369
435.501
439.772
444.809
450.666
455.441
457.396
458.143
392.527
390.893
390.43
391.365
393.631
396.526
400.389
405.203
410.644
416.379
421.851
426.595
431.217
436.279
441.857
448.278
454.251
458.227
460.092
461.029
380.84
377.671
376.798
378.985
383.634
388.991
393.669
397.645
402.407
408.732
416.1
422.997
429.562
435.956
442.613
449.428
455.342
459.314
461.206
461.716
366.123
360.941
359.339
361.435
366.529
373.503
382.06
390.599
398.169
404.808
411.494
418.549
426.008
433.361
440.384
447.071
453.549
458.236
460.149
460.573
343.52
337.815
340.606
347.287
353.147
358.26
365.851
376.693
388.628
398.615
406.254
413.714
421.633
429.426
436.747
443.601
450.187
455.067
457.443
458.069
302.025
295.52
307.02
321.696
334.301
345.656
356.225
366.869
378.602
390.092
399.989
408.395
416.376
424.384
432.053
438.925
445.531
450.74
453.596
454.738
255.021
267.104
280.246
286.759
297.962
317.919
339.481
356.34
369.2
380.965
391.8
401.513
410.524
418.997
426.534
433.247
439.88
445.303
448.698
450.177
266.891
265.013
271.234
265.023
269.074
287.461
317.213
342.581
359.877
372.459
384.46
395.577
405.029
413.236
420.548
427.31
433.808
439.282
442.946
444.925
261
266.958
261.037
249.91
248.449
264.632
294.283
326.283
349.142
364.118
377.111
388.486
398.009
406.325
413.832
420.824
427.236
432.758
436.753
438.878
261.811
259.424
247.658
237.187
236.002
246.446
275.56
310.569
337.823
356.052
369.71
381.48
391.364
399.799
407.296
414.041
420.102
425.34
429.182
431.309
263.486
258.912
245.065
228.352
225.486
237.558
262.08
299.501
331.386
351.841
365.108
375.779
384.898
392.983
400.346
406.808
412.382
417.281
421.085
423.237
271.959
266.555
253.798
240.994
237.402
240.867
256.527
296.307
329.167
350.71
362.266
370.96
378.833
386.301
393.367
399.525
404.646
409.142
412.599
414.431
281.116
275.967
265.03
255.497
251.822
251.075
267.691
300.019
331.053
349.33
359.285
366.675
373.606
380.573
387.312
392.951
397.297
400.982
403.768
405.15
287.611
282.59
276.322
266.812
262.096
269.092
290.141
317.963
343.627
353.696
358.461
362.931
368.348
374.421
380.529
385.653
389.421
392.41
394.601
395.787
284.723
280.762
276.071
271.505
267.864
283.214
312.438
341.159
365.3
363.071
361.59
362.298
364.811
368.408
372.968
377.078
380.267
383.113
385.259
386.372
279.624
276.949
273.187
272.678
271.446
285.348
318.19
352.126
371.952
370.051
364.966
361.482
361.067
362.715
365.549
368.258
370.731
373.293
375.201
376.118
274.488
272.945
270.139
271.09
275.023
280.223
311.512
344.376
363.138
369.294
361.427
355.255
353.32
354.636
357.09
359.118
360.944
363.02
364.693
365.372
271.237
270.234
267.205
267.285
273.302
281.431
301.601
324.126
344.429
353.022
348.127
341.53
339.785
342.22
345.535
347.851
349.999
352.125
353.407
353.849
269.42
268.754
265.344
263.747
267.671
275.935
288.638
303.535
318.71
326.231
324.223
318.751
319.538
325.171
330.538
333.934
336.831
339.399
341.079
341.843
268.46
267.676
264.85
261.211
260.836
265.238
271.997
279.734
288.131
292.576
291.062
288.117
293.343
303.41
311.845
317.362
321.978
325.701
327.842
328.67
267.037
266.173
265.234
258.044
252.093
249.754
250.301
251.96
253.335
252.916
250.695
251.321
262.514
278.354
291.257
299.622
305.898
310.56
313.394
314.975
264.463
264.527
261.013
251.543
239.889
230.12
224.077
220.433
215.958
210.473
206.991
211.531
229.679
251.891
269.198
280.872
289.636
295.94
299.928
301.4
260.288
262.053
253.439
239.525
223.253
208.022
196.443
188.413
179.079
168.982
165.175
174.256
199.026
226.616
248.037
263.28
274.101
281.491
286.208
288.484
257.156
252.529
241.482
223.609
204.647
186.869
172.056
160.292
146.642
133.667
131.054
144.98
174.88
205.85
230.066
247.466
259.84
268.975
275.2
277.237
254.361
244.521
227.61
207.497
187.795
169.443
152.94
138.112
121.362
107.643
107.444
126.332
158.95
191.378
217.053
235.727
249.089
258.575
264.642
267.821
243.537
231.007
212.282
191.788
172.656
155.557
139.894
124.071
106.102
93.4236
94.7961
119.365
152.197
183.864
209.17
227.741
240.83
250.612
257.706
260.901
227.188
215.937
197.677
178.033
160.511
145.728
132.873
119.362
102.954
93.7809
99.313
121.882
152.886
182.295
205.846
223.375
236.084
245.815
252.484
255.673
210.931
200.444
183.817
166.608
152.117
140.849
132.042
123.359
109.027
105.117
113.518
134.422
161.419
186.552
206.746
221.751
233.121
242.272
249.077
252.619
195.7
186.604
172.126
157.744
146.898
139.901
135.727
131.653
124.275
123.664
133.004
151.238
173.164
193.11
209.25
221.895
232.63
241.307
247.497
250.578
183.247
175.608
163.561
152.399
145.213
142.324
143.045
143.044
141.797
144.283
153.33
168.079
184.982
200.381
213.362
224.32
233.544
240.395
245.613
249.296
174.391
168.01
158.587
150.623
146.732
147.361
151.756
155.703
158.597
163.268
171.511
183.099
195.736
207.388
217.716
226.953
234.978
241.358
246.471
249.211
169.789
164.856
157.538
152.242
151.017
154.321
161.071
167.787
173.334
179.023
186.324
195.533
205.257
214.436
223.19
231.314
238.112
243.025
246.318
249.165
169.849
165.872
160.327
156.784
157.353
162.226
170.287
178.423
185.546
191.61
198.1
205.804
213.844
221.527
228.823
235.326
240.915
245.65
249.281
251.367
173.511
170.594
166.295
164.164
165.526
170.958
179.285
187.772
195.412
201.415
207.471
214.283
221.196
227.852
234.467
240.621
245.929
249.962
251.992
253.584
179.908
177.626
174.376
172.901
174.578
179.991
187.83
196.112
203.68
209.43
215.143
221.379
227.614
233.989
240.304
245.753
250.23
253.892
256.793
258.462
187.939
186.272
183.844
182.787
184.352
189.048
195.978
203.663
210.962
216.418
221.996
227.86
233.629
239.644
245.666
251.131
256.018
260.114
262.708
263.63
197.39
195.966
194.01
193.058
194.225
197.787
203.364
210.24
217.189
222.673
228.293
233.857
239.567
245.726
251.766
257.234
262.012
265.8
268.449
270.148
207.386
206.277
204.605
203.746
204.482
206.725
210.707
216.519
222.797
228.46
234.41
240.215
246.107
251.959
257.611
263.005
268.053
272.808
276.967
278.21
217.701
216.567
214.91
213.811
213.861
215.142
218.026
222.903
228.379
234.324
240.488
246.387
252.349
258.132
263.949
269.96
275.784
280.483
283.229
284.969
227.986
226.909
225.12
223.617
222.889
223.172
225.108
229.416
234.518
240.48
246.474
252.639
258.828
264.539
270.351
275.895
280.95
286.322
292.606
294.773
238.67
237.186
234.843
232.8
231.436
231.026
232.282
236.072
240.939
246.996
252.89
259.028
265.106
270.628
276.3
282.229
288.576
294.611
299.167
301.172
249.658
247.912
244.918
241.929
239.529
238.291
239.025
242.439
247.461
253.502
259.228
265.453
271.381
276.939
282.715
288.027
292.956
298.185
305.377
309.86
260.974
258.968
255.45
251.8
248.552
246.453
246.626
249.543
254.288
260.057
265.936
272.112
277.749
283.2
288.478
293.511
298.345
302.311
307.911
313.055
272.687
270.52
266.525
262.15
258.268
255.653
255.362
257.678
262.05
267.287
272.702
278.394
283.4
288.606
293.768
298.991
303.684
305.053
300.979
304.472
285.101
282.634
278.289
273.312
268.706
265.387
264.646
266.584
270.308
274.634
279.457
284.259
288.881
294.198
299.093
303.827
306.931
305.866
297.558
309.087
298.05
295.44
290.851
285.863
280.994
277.161
275.437
276.154
278.702
282.047
285.965
289.784
294.007
298.785
302.769
306.616
311.515
318.931
313.269
309.361
311.215
308.651
303.974
298.722
293.645
289.563
286.965
286.369
287.431
289.238
291.865
294.503
298.181
302.716
307.152
311.73
315.017
319.465
327.172
315.503
324.374
321.933
317.433
311.828
306.101
301.442
298.251
296.358
295.686
295.63
296.801
298.613
301.828
305.895
310.865
316.955
322.485
320.905
320.504
320.388
336.831
334.718
330.777
325.506
319.449
313.759
309.265
305.583
303.005
301.206
300.907
301.699
304.239
308.175
313.582
319.787
324.772
329.982
321.941
322.963
348.009
346.196
342.69
337.862
331.854
325.414
319.584
314.148
309.491
305.606
303.534
303.405
304.802
308.324
314.371
322.133
329.029
329.504
326.815
324.506
357.869
356.229
352.998
348.277
342.127
335.149
328.39
321.518
314.742
309
305.053
303.057
303.105
306.283
312.153
320.339
329.744
330.047
325.365
324.512
365.996
364.732
361.936
357.58
351.31
343.448
335.312
327.052
318.842
311.108
304.541
300.417
298.498
300.24
305.13
312.641
318.934
323.55
319.367
321.74
372.114
370.999
368.619
364.651
358.504
349.93
340.477
331.228
321.345
311.476
302.404
294.839
289.773
289.005
291.151
295.517
299.917
305.962
308.267
310.875
376.547
375.556
373.276
369.392
363.47
354.885
344.592
333.728
322.306
310.34
297.935
286.357
277.128
272.448
270.371
270.867
274.938
280.18
288.834
292.429
379.494
378.686
376.669
373.001
367.253
358.554
347.089
334.891
321.808
307.623
291.931
275.751
261.274
252.051
245.752
243.23
247.147
253.879
264.119
269.578
381.242
380.494
378.522
374.898
369.023
360.399
348.762
335.321
320.524
304.01
285.209
264.299
244.155
230.785
221.363
216.32
220.095
229.303
239.873
246.528
382.156
381.38
379.324
375.634
369.792
361.615
349.835
335.245
318.481
299.827
277.977
252.858
227.716
210.061
198.849
193.457
196.845
207.881
218.603
225.635
382.709
381.991
379.95
376.494
370.573
362.111
350.312
335.205
317.046
295.888
271.61
243.157
213.639
192.458
179.97
174.57
178.182
192.033
203.127
211.197
383.051
382.384
380.354
376.793
370.883
362.572
351.045
335.917
316.573
293.529
267.306
237.244
205.042
179.534
165.371
161.391
167.726
183.069
197.137
205.122
383.366
382.796
380.758
377.35
371.774
363.619
352.084
337.079
318.07
294.179
266.725
235.283
201.807
174.444
159.443
156.044
163.765
182.183
197.405
204.416
383.896
383.44
381.508
378.172
372.972
364.886
354.127
339.594
321.166
297.76
269.996
239.279
206.917
179.74
164.471
161.592
171.254
188.32
201.989
210.785
384.546
384.294
382.241
379.156
374.459
367.131
356.816
343.008
325.737
304.357
279.055
250.365
220.99
196.016
181.698
179.672
189.035
205.826
220.11
229.909
385.427
385.199
383.411
380.519
376.424
369.438
360.067
347.616
332.359
313.353
291.384
267.542
242.956
221.552
208.986
207.585
217.206
233.132
246.814
255.418
386.504
386.29
384.741
382.025
377.968
371.871
363.659
352.764
339.453
323.762
305.621
286.241
267.242
250.993
241.714
242.011
250.158
262.491
273.64
280.453
387.723
387.352
386.311
383.644
379.785
374.366
367.136
357.853
346.5
333.296
318.826
303.717
289.499
278.401
272.555
273.498
280.61
290.514
298.737
304.358
388.983
388.512
387.783
385.054
381.234
376.343
370.164
362.052
352.512
341.709
329.979
318.463
308.455
300.685
297.39
299.25
305.746
313.412
320.361
324.806
390.152
389.594
388.689
386.136
382.45
378.186
372.618
365.76
357.643
348.806
339.288
330.241
322.767
317.956
316.258
318.688
324.604
332.194
338.449
341.129
391.115
390.367
389.171
386.681
383.548
379.46
374.338
368.406
361.813
354.353
346.699
339.458
333.596
330.024
329.06
331.259
336.839
342.547
345.356
344.569
391.735
390.817
388.963
387.049
384.298
380.527
375.912
370.856
365.147
358.769
352.329
346.351
341.05
337.961
337.568
339.353
343.395
348.313
351.726
355.33
391.813
390.535
388.662
387.089
384.742
381.232
376.947
372.565
367.431
361.914
356.166
350.918
346.364
343.167
342.055
342.913
345.86
350.142
355.384
354.977
390.773
389.515
387.831
386.657
384.737
381.646
378.313
374.121
369.487
364.426
359.274
354.142
349.34
345.871
343.492
343.259
344.733
347.74
349.035
354.004
389.054
387.457
386.77
386.033
384.455
382.123
379.173
375.644
371.229
366.476
361.474
356.319
351.186
346.687
343.524
341.316
341.224
342.709
344.543
344.452
386.801
385.856
385.99
385.521
384.398
382.517
380.335
376.897
373.066
368.629
363.507
357.949
352.471
346.904
341.704
337.861
334.536
331.59
328.018
330.741
385.368
384.891
385.767
385.613
384.504
383.385
381.443
378.698
375.279
370.69
365.49
359.546
352.886
346.195
338.952
331.914
324.281
317.252
308.105
299.935
385.812
385.815
386.589
386.039
385.246
384.308
382.696
380.6
377.503
373.252
367.651
361.3
353.978
345.377
336.027
325.497
313.469
298.869
279.218
258.881
387.673
388.526
387.892
387.262
386.421
385.674
384.678
383.185
380.444
376.365
370.781
363.568
355.068
345.138
333.172
319.129
301.84
280.539
248.034
179.742
388.711
389.408
388.87
387.914
387.322
386.989
386.319
385.658
383.302
379.676
373.9
366.742
357.095
345.632
331.617
314.775
290.727
258.763
221.394
80.6391
389.36
389.794
389.491
389.049
388.82
388.729
388.841
388.55
387.045
383.891
378.448
370.409
360.393
347.548
330.889
310.183
289.005
236.359
197.975
77.0413
389.627
389.51
389.095
389.152
389.6
390.203
390.945
391.172
391.278
387.861
382.794
375.692
364.409
350.036
336.265
305.971
289.718
235.269
179.255
114.485
389.378
389.23
389.847
389.323
390.225
391.24
393.835
392.757
397.557
391.629
388.501
378.57
372.897
349.505
343.52
309.57
284.211
245.412
185.698
157.571
388.896
388.154
386.996
388.446
391.753
391.821
397.518
392.807
404.42
390.34
398.54
376.542
379.717
352.13
341.967
317.197
283.169
262.118
220.892
192.38
389.125
387.579
386.934
387.805
392.528
391.259
401.762
389.499
409.918
388.755
397.66
378.698
374.164
358.783
339.894
326.182
296.171
279.416
245.875
211.743
390.327
387.577
387.53
389.665
395.917
393.543
402.113
391.447
395.515
386.35
386.326
380.463
370.023
366.604
345.918
336.698
314.306
291.949
258.144
223.267
394.789
389.765
387.475
391.109
397.625
400.001
399.708
397.08
387.504
387.92
382.911
385.865
375.737
375.147
358.791
344.276
323.682
299.825
267.061
231.748
400.722
394.437
393.444
396.124
399.368
408.843
395.248
407.108
389.948
407.457
391.66
399.83
384.915
379.217
365.659
347.896
326.544
303.579
273.804
239.178
406.922
400.728
397.925
401.384
400.884
410.978
399.452
428.656
410.445
426.13
397.456
412.276
390.167
379.88
366.008
348.7
327.346
304.476
277.151
244.222
-115.048
-105.74
-127.768
-98.5311
-149.799
-107.524
-120.517
-138.956
-160.006
-183.466
-210.36
-235.11
-251.703
-255.297
-244.473
-225.775
-189.643
-138.831
-82.8642
-42.5419
6.83722
52.6966
73.089
100.01
109.832
116.652
120.586
121.457
117.446
109.963
102.657
95.7497
85.4393
67.8567
41.2019
4.44531
-42.8963
-100.259
-162.832
-224.155
-278.103
-320.612
-349.034
-361.573
-358.989
-343.949
-317.413
-276.061
-221.526
-162.701
-109.393
-55.0623
-5.56558
35.5638
67.9785
88.5113
96.0728
92.7312
79.5246
56.9068
27.3238
-4.56052
-30.841
-44.5996
-43.6729
-32.4099
-18.9381
-14.7326
-25.5342
-46.5551
-68.587
-84.0396
-90.6329
-89.768
-81.174
-69.2566
-54.1964
-38.5863
-23.1384
-7.30235
-92.6817
-146.68