/*--------------------------------*- C++ -*----------------------------------*\
| =========                 |                                                 |
| \\      /  F ield         | OpenFOAM: The Open Source CFD Toolbox           |
|  \\    /   O peration     | Version:  2306                                  |
|   \\  /    A nd           | Website:  www.openfoam.com                      |
|    \\/     M anipulation  |                                                 |
\*---------------------------------------------------------------------------*/
FoamFile
{
    version     2.0;
    format      ascii;
    arch        "LSB;label=32;scalar=64";
    class       surfaceScalarField;
    location    "0.475";
    object      phi;
}
// * * * * * * * * * * * * * * * * * * * * * * * * * * * * * * * * * * * * * //

dimensions      [0 3 -1 0 0 0 0];

oriented        oriented;

internalField   nonuniform List<scalar> 
8520
(
0.00992781
7.21932e-05
0.00978962
0.000138188
0.00962951
0.000160114
0.00946826
0.000161243
0.00930945
0.000158813
0.00914914
0.000160309
0.00898638
0.000162757
0.00882094
0.000165442
0.00865371
0.000167234
0.00848561
0.000168093
0.00831789
0.000167726
0.00815107
0.000166815
0.00798554
0.000165529
0.00782133
0.00016421
0.00765849
0.000162846
0.00749709
0.000161396
0.00733715
0.00015994
0.00717885
0.000158303
0.00702217
0.000156685
0.00686731
0.000154859
0.00671428
0.000153023
0.00656321
0.000151078
0.00641416
0.000149041
0.00626713
0.000147038
0.00612228
0.000144843
0.00597952
0.000142763
0.00583902
0.000140499
0.00570064
0.00013838
0.00556458
0.000136061
0.00543061
0.000133969
0.00529903
0.000131585
0.00516942
0.000129605
0.0050421
0.000127325
0.00491658
0.000125518
0.00479315
0.000123434
0.00467124
0.000121909
0.00455111
0.000120123
0.00443208
0.000119035
0.00431434
0.000117734
0.00419715
0.000117199
0.00408053
0.000116614
0.0039638
0.000116727
0.00384678
0.000117027
0.00372873
0.000118052
0.00360933
0.0001194
0.00348766
0.000121671
0.00336337
0.000124284
0.00323525
0.000128124
0.00310299
0.000132259
0.00296501
0.000137983
0.00282112
0.00014389
0.00266933
0.000151785
0.00250963
0.000159695
0.00233968
0.000169956
0.00215973
0.000179951
0.00196714
0.000192585
0.00176271
0.000204428
0.00154371
0.000219008
0.0013118
0.000231907
0.00106463
0.00024717
0.000805445
0.000259185
0.000533449
0.000271995
0.00025689
0.00027656
-1.33697e-05
0.000270259
-0.000259095
0.000245725
-0.000470522
0.000211428
-0.000621381
0.000150859
-0.000697414
7.60327e-05
-0.000675527
-2.18868e-05
-0.000552032
-0.000123496
-0.000318379
-0.000233653
-3.40531e-05
-0.000284326
0.00021002
-0.000244074
0.000309525
-9.95051e-05
-1.37167e-05
0.000323242
-0.000516312
0.000502595
-0.000401333
-0.000114979
-8.66301e-05
-0.000314703
-0.000101304
1.46737e-05
0.000155581
-0.000256885
0.0100357
3.65384e-05
0.0100799
9.39692e-05
0.0101108
0.000129198
0.0101273
0.000144773
0.0101357
0.000150329
0.0101431
0.000152943
0.0101494
0.000156516
0.0101532
0.000161603
0.0101537
0.000166753
0.0101502
0.000171563
0.010143
0.000174902
0.0101324
0.000177487
0.0101188
0.000179042
0.0101028
0.000180291
0.0100843
0.000181275
0.0100637
0.000181981
0.0100408
0.000182861
0.010016
0.00018317
0.00998872
0.000183916
0.00995975
0.000183829
0.0099285
0.000184272
0.00989563
0.00018395
0.00986066
0.000184011
0.00982411
0.000183591
0.00978564
0.00018331
0.00974562
0.000182782
0.0097038
0.000182322
0.00966046
0.00018172
0.00961542
0.000181104
0.00956883
0.000180561
0.00952059
0.000179817
0.00947072
0.000179474
0.00941924
0.000178809
0.00936606
0.0001787
0.00931114
0.00017835
0.0092544
0.000178649
0.00919578
0.000178745
0.00913508
0.000179734
0.00907229
0.000180525
0.00900706
0.000182431
0.00893916
0.000184514
0.00886861
0.000187276
0.0087946
0.000191031
0.00871762
0.000195034
0.00863613
0.000200891
0.00855115
0.000206655
0.00846038
0.000215053
0.00836533
0.000223174
0.00826302
0.000234566
0.00815519
0.000245816
0.00803855
0.000260529
0.00791456
0.000275773
0.00778006
0.000294201
0.00763594
0.000314069
0.00747919
0.000336707
0.00731046
0.000361313
0.00712633
0.000388558
0.00692817
0.000417163
0.0067114
0.000448678
0.00647942
0.000479156
0.00622628
0.000512318
0.00595836
0.000539915
0.00566753
0.000567389
0.00535722
0.000580577
0.00502399
0.000578956
0.00466485
0.000570562
0.00426097
0.000554741
0.0038073
0.000529703
0.00327844
0.000506974
0.00265461
0.000500334
0.0018856
0.000535354
0.0010086
0.000592679
0.000152965
0.000611558
-0.000420672
0.000474131
-0.000554637
0.000457208
-0.000388884
0.000336842
-0.00044852
-5.53435e-05
-0.000583693
-0.00017953
-0.000576451
7.43234e-06
0.000111491
-0.000532361
0.0100141
2.24261e-05
0.0100441
6.39632e-05
0.0100777
9.55993e-05
0.0101074
0.000115079
0.0101313
0.000126451
0.0101523
0.00013197
0.010173
0.000135796
0.010195
0.000139568
0.0102179
0.000143857
0.0102408
0.0001487
0.0102631
0.000152566
0.0102842
0.000156411
0.0103045
0.000158746
0.0103236
0.000161187
0.0103423
0.000162584
0.0103601
0.000164171
0.0103775
0.000165462
0.0103941
0.000166524
0.0104101
0.000167988
0.0104253
0.000168564
0.0104396
0.000170037
0.0104532
0.000170343
0.0104656
0.000171597
0.0104773
0.000171849
0.0104878
0.000172831
0.0104975
0.000173072
0.0105059
0.000173951
0.0105134
0.000174202
0.0105195
0.000175004
0.0105246
0.000175485
0.0105282
0.000176157
0.0105306
0.000177117
0.0105316
0.00017778
0.010531
0.0001793
0.0105292
0.000180219
0.0105253
0.000182488
0.0105202
0.00018386
0.0105128
0.000187136
0.0105039
0.000189404
0.0104927
0.000193671
0.0104796
0.000197635
0.0104641
0.000202773
0.010446
0.00020905
0.0104255
0.000215567
0.010402
0.000224427
0.0103755
0.000233148
0.0103455
0.000245058
0.0103121
0.000256583
0.0102742
0.00027243
0.0102327
0.000287302
0.0101854
0.000307888
0.0101341
0.000327051
0.0100755
0.000352738
0.010012
0.000377652
0.00994057
0.000408096
0.00986139
0.000440494
0.00977514
0.000474806
0.00967697
0.000515338
0.00957273
0.000552916
0.00945279
0.000599099
0.00932586
0.000639242
0.00918061
0.000685173
0.00902383
0.000724166
0.00884323
0.000761178
0.00863159
0.000790591
0.00838513
0.000817025
0.00809414
0.000845731
0.00775528
0.000868564
0.00735731
0.000904949
0.00691161
0.000946031
0.00642654
0.00102042
0.00592836
0.00109086
0.00536491
0.001175
0.00463162
0.00120742
0.00387597
0.00121286
0.00302644
0.00118637
0.00190165
0.00106945
0.000679399
0.00104272
-0.000107553
0.000794384
0.000416022
-0.000412084
0.010007
1.54331e-05
0.0100268
4.41644e-05
0.0100519
7.05035e-05
0.010077
8.99376e-05
0.0101003
0.000103175
0.0101223
0.000109955
0.0101431
0.000115024
0.0101643
0.000118403
0.0101863
0.000121779
0.0102095
0.000125533
0.0102332
0.00012889
0.0102569
0.00013271
0.0102805
0.000135082
0.0103037
0.000138009
0.010327
0.000139264
0.0103499
0.000141341
0.0103731
0.000142239
0.0103959
0.000143729
0.010419
0.000144869
0.0104418
0.000145792
0.0104645
0.00014728
0.0104871
0.000147784
0.0105093
0.00014941
0.0105314
0.000149722
0.0105529
0.000151336
0.0105744
0.000151594
0.010595
0.000153323
0.0106157
0.000153521
0.0106352
0.000155465
0.0106549
0.00015582
0.0106732
0.000157875
0.0106915
0.000158782
0.0107084
0.000160878
0.0107251
0.000162596
0.0107404
0.000164883
0.0107552
0.000167727
0.0107689
0.000170207
0.0107812
0.000174802
0.0107931
0.000177461
0.0108027
0.000184145
0.0108126
0.000187699
0.0108193
0.000196037
0.0108265
0.000201919
0.0108305
0.000211501
0.0108342
0.000220741
0.0108353
0.000232063
0.0108354
0.000245009
0.0108328
0.000259178
0.010829
0.000276161
0.0108222
0.000294168
0.0108142
0.000315878
0.0108027
0.000338549
0.0107896
0.000365838
0.0107733
0.000393886
0.0107538
0.000427597
0.0107328
0.000461563
0.0107059
0.000501714
0.0106784
0.000542839
0.0106442
0.000587125
0.0106065
0.000636739
0.0105632
0.000682519
0.0105107
0.000737671
0.0104494
0.000785465
0.010371
0.000839635
0.01027
0.000891559
0.0101438
0.000943243
0.00998898
0.00100055
0.00979994
0.0010576
0.00957626
0.00112863
0.00931847
0.00120382
0.00903745
0.00130144
0.00872354
0.00140478
0.00836814
0.0015304
0.00792559
0.00164998
0.00741892
0.00171953
0.00681956
0.00178572
0.00614063
0.00174839
0.00545
0.00173335
0.00452351
0.00172087
0.00155261
0.00338692
0.0100044
1.09871e-05
0.0100166
3.19928e-05
0.010035
5.20731e-05
0.0100564
6.86071e-05
0.010078
8.15347e-05
0.010099
8.89264e-05
0.0101192
9.48896e-05
0.0101399
9.77247e-05
0.0101605
0.0001011
0.0101827
0.000103336
0.0102049
0.000106719
0.0102283
0.000109307
0.0102513
0.000112125
0.0102749
0.000114383
0.010298
0.000116182
0.0103214
0.000117897
0.0103446
0.000119016
0.0103681
0.000120303
0.0103915
0.00012143
0.010415
0.000122278
0.0104385
0.000123795
0.010462
0.000124276
0.0104854
0.000126069
0.0105087
0.000126394
0.0105318
0.000128259
0.0105547
0.000128642
0.0105774
0.000130651
0.0105999
0.000131033
0.0106219
0.000133425
0.0106438
0.000133905
0.0106651
0.000136617
0.0106861
0.000137743
0.0107067
0.000140334
0.0107264
0.000142865
0.0107462
0.000145067
0.0107644
0.000149512
0.0107833
0.000151376
0.0107999
0.000158166
0.0108176
0.000159758
0.0108324
0.000169363
0.010849
0.000171068
0.0108616
0.000183431
0.010877
0.000186568
0.0108876
0.000200902
0.010901
0.000207297
0.0109101
0.000223002
0.010921
0.000234065
0.0109289
0.000251322
0.010937
0.000268059
0.010944
0.000287151
0.0109488
0.000311027
0.0109555
0.000331853
0.0109571
0.000364271
0.0109633
0.000387698
0.0109626
0.000428341
0.0109677
0.000456412
0.0109647
0.000504687
0.0109697
0.000537854
0.0109629
0.000593956
0.0109667
0.000632958
0.0109558
0.000693421
0.0109504
0.000743045
0.0109332
0.000802693
0.0109079
0.00086488
0.0108731
0.000926345
0.0108202
0.000996191
0.0107541
0.00106664
0.0106623
0.00114936
0.0105589
0.00123211
0.0104208
0.00134187
0.0102784
0.00144388
0.0100952
0.00158789
0.00990461
0.00172103
0.00968353
0.00187106
0.00940019
0.00200288
0.00907653
0.00210938
0.00862828
0.00219664
0.00809446
0.00226717
0.00744648
0.00236885
0.0023268
0.00667229
0.0100031
7.84983e-06
0.0100118
2.33462e-05
0.0100256
3.82362e-05
0.0100431
5.11105e-05
0.0100625
6.21918e-05
0.0100824
6.8953e-05
0.0101023
7.5002e-05
0.0101225
7.75245e-05
0.0101426
8.10203e-05
0.0101638
8.2173e-05
0.0101852
8.52755e-05
0.0102078
8.6683e-05
0.0102303
8.97009e-05
0.0102535
9.11509e-05
0.0102764
9.32784e-05
0.0102996
9.46842e-05
0.0103229
9.57504e-05
0.0103459
9.72603e-05
0.0103696
9.77573e-05
0.0103926
9.93062e-05
0.0104165
9.98942e-05
0.0104394
0.000101343
0.0104633
0.000102178
0.0104861
0.000103595
0.0105098
0.000104537
0.0105323
0.000106151
0.0105557
0.000107208
0.0105778
0.000108958
0.0106008
0.000110468
0.0106224
0.000112252
0.0106446
0.000114458
0.0106659
0.000116472
0.0106869
0.000119248
0.0107078
0.000122034
0.0107276
0.000125223
0.0107478
0.000129284
0.0107664
0.000132833
0.0107858
0.000138769
0.0108031
0.000142416
0.0108213
0.000151209
0.0108377
0.000154629
0.0108541
0.000167022
0.0108699
0.000170814
0.0108844
0.000186339
0.0108993
0.000192483
0.0109125
0.000209805
0.0109258
0.000220719
0.0109381
0.000238978
0.0109501
0.000256082
0.0109613
0.000275927
0.0109729
0.000299429
0.0109827
0.000322068
0.0109942
0.000352754
0.0110037
0.000378196
0.0110147
0.000417386
0.0110245
0.000446619
0.0110362
0.000492933
0.0110448
0.00052932
0.011058
0.000580777
0.0110655
0.000625434
0.0110755
0.000683427
0.0110818
0.000736733
0.0110851
0.000799372
0.0110821
0.000867928
0.0110788
0.00092962
0.0110568
0.00101816
0.0110373
0.00108616
0.0109958
0.00119091
0.010948
0.00127991
0.0108856
0.0014042
0.0108104
0.00151911
0.0107242
0.00167409
0.0106327
0.00181256
0.0105151
0.00198862
0.010377
0.00214098
0.0101824
0.00230399
0.00990974
0.0024693
0.00959002
0.00258688
0.0092096
0.00274926
0.00279437
0.00874204
0.0100025
5.30365e-06
0.0100092
1.67209e-05
0.0100206
2.68573e-05
0.010035
3.6629e-05
0.0100525
4.47043e-05
0.0100708
5.06767e-05
0.0100904
5.5362e-05
0.0101099
5.80897e-05
0.0101302
6.07346e-05
0.0101504
6.18957e-05
0.0101717
6.39917e-05
0.0101934
6.50022e-05
0.0102156
6.74576e-05
0.0102383
6.85308e-05
0.0102611
7.0488e-05
0.0102841
7.16721e-05
0.0103072
7.25838e-05
0.0103302
7.4251e-05
0.0103538
7.42061e-05
0.0103767
7.63759e-05
0.0104005
7.60946e-05
0.0104234
7.84325e-05
0.0104472
7.83918e-05
0.0104701
8.06974e-05
0.0104936
8.10132e-05
0.0105165
8.33172e-05
0.0105395
8.41754e-05
0.0105623
8.61553e-05
0.0105845
8.82543e-05
0.0106074
8.93933e-05
0.0106285
9.33469e-05
0.0106514
9.35965e-05
0.0106713
9.93341e-05
0.010694
9.93569e-05
0.0107127
0.000106512
0.010735
0.000106976
0.0107524
0.000115444
0.0107743
0.000116846
0.0107902
0.000126471
0.0108116
0.000129849
0.0108264
0.000139854
0.0108465
0.000146888
0.0108609
0.000156386
0.0108789
0.000168386
0.010894
0.000177411
0.010909
0.000194792
0.0109253
0.000204376
0.0109374
0.000226844
0.0109548
0.000238722
0.0109652
0.000265573
0.010983
0.000281609
0.0109923
0.00031278
0.0110112
0.000333847
0.0110194
0.000369963
0.0110395
0.000397254
0.0110485
0.000437611
0.0110679
0.000473617
0.0110798
0.000517424
0.0110973
0.000563251
0.0111107
0.000612062
0.0111259
0.000668144
0.0111404
0.000722282
0.0111479
0.000791909
0.0111651
0.000850722
0.0111596
0.000935121
0.0111719
0.00100581
0.0111556
0.00110252
0.0111526
0.0011939
0.0111245
0.00130796
0.0111047
0.00142398
0.0110624
0.00156146
0.0110299
0.00170655
0.0109724
0.00187009
0.0109204
0.00204059
0.0108342
0.0022272
0.0107181
0.00242008
0.0105873
0.00260015
0.0103682
0.00280597
0.0101574
0.00296004
0.00315105
0.00980072
0.0100023
2.95878e-06
0.0100077
1.13486e-05
0.0100178
1.67802e-05
0.0100302
2.42039e-05
0.0100463
2.8602e-05
0.0100632
3.38299e-05
0.0100823
3.62166e-05
0.0101011
3.92568e-05
0.0101215
4.03605e-05
0.0101414
4.20021e-05
0.0101626
4.28137e-05
0.0101837
4.39424e-05
0.0102057
4.54468e-05
0.0102279
4.6273e-05
0.0102504
4.79676e-05
0.0102735
4.86045e-05
0.0102963
4.98036e-05
0.0103197
5.07951e-05
0.0103427
5.12611e-05
0.0103663
5.27794e-05
0.0103893
5.30612e-05
0.010413
5.47297e-05
0.010436
5.54226e-05
0.0104597
5.69597e-05
0.0104825
5.82137e-05
0.0105061
5.97355e-05
0.0105287
6.15672e-05
0.010552
6.29066e-05
0.0105743
6.5966e-05
0.0105971
6.65121e-05
0.0106189
7.15842e-05
0.0106414
7.11098e-05
0.0106625
7.82e-05
0.0106844
7.74662e-05
0.010705
8.59684e-05
0.010726
8.58823e-05
0.010746
9.55233e-05
0.0107662
9.65657e-05
0.0107854
0.000107355
0.0108049
0.000110358
0.0108232
0.000121494
0.0108416
0.000128523
0.0108598
0.000138188
0.0108763
0.00015182
0.0108951
0.000158637
0.0109095
0.000180366
0.0109292
0.000184687
0.0109416
0.000214445
0.0109625
0.000217819
0.0109731
0.000254993
0.0109953
0.000259404
0.0110052
0.00030289
0.0110278
0.000311301
0.0110389
0.000358825
0.011061
0.000375185
0.0110742
0.000424383
0.0110958
0.000451986
0.0111116
0.000501674
0.0111315
0.000543341
0.0111508
0.000592794
0.0111678
0.000651118
0.0111883
0.000701752
0.0112041
0.000776079
0.0112215
0.000833373
0.0112337
0.000922895
0.0112473
0.000992265
0.0112504
0.00109936
0.0112583
0.00118602
0.0112496
0.00131667
0.0112509
0.00142265
0.0112289
0.00158352
0.0112184
0.00171696
0.0111887
0.00189979
0.0111531
0.00207626
0.0111042
0.00227608
0.0110378
0.00248647
0.0109393
0.00269867
0.0108192
0.00292609
0.01064
0.00313919
0.00338098
0.0104101
0.0100022
8.08012e-07
0.010007
6.48248e-06
0.0100162
7.57238e-06
0.0100276
1.28268e-05
0.0100426
1.36061e-05
0.0100588
1.76714e-05
0.0100772
1.7813e-05
0.0100959
2.05416e-05
0.0101159
2.03343e-05
0.010136
2.19451e-05
0.0101568
2.19832e-05
0.0101778
2.28972e-05
0.0101994
2.38534e-05
0.0102216
2.40613e-05
0.0102439
2.5741e-05
0.010267
2.54508e-05
0.0102896
2.72492e-05
0.0103133
2.71159e-05
0.010336
2.85346e-05
0.0103598
2.89213e-05
0.0103827
3.02321e-05
0.0104066
3.07785e-05
0.0104294
3.25952e-05
0.0104534
3.30164e-05
0.0104762
3.5369e-05
0.0104998
3.61243e-05
0.0105229
3.85404e-05
0.0105458
3.99406e-05
0.0105689
4.28721e-05
0.0105914
4.40504e-05
0.0106141
4.89207e-05
0.0106363
4.88278e-05
0.0106582
5.63024e-05
0.0106802
5.55197e-05
0.0107016
6.45563e-05
0.0107226
6.4898e-05
0.010744
7.41012e-05
0.0107637
7.69161e-05
0.010785
8.60093e-05
0.0108037
9.16679e-05
0.0108243
0.000100875
0.0108427
0.000110114
0.0108623
0.000118638
0.0108804
0.000133683
0.0108995
0.000139493
0.0109166
0.000163283
0.0109364
0.000164878
0.0109522
0.000198634
0.0109727
0.000197332
0.0109883
0.000239409
0.011009
0.000238716
0.011025
0.000286874
0.0110466
0.000289717
0.0110629
0.000342487
0.0110857
0.000352397
0.0111036
0.00040647
0.0111267
0.000428966
0.0111464
0.000481925
0.0111712
0.000518574
0.0111903
0.000573664
0.0112177
0.000623685
0.0112371
0.000682358
0.0112632
0.000749998
0.0112839
0.000812738
0.0113069
0.000899847
0.0113253
0.000973842
0.0113451
0.0010796
0.0113568
0.00117428
0.011375
0.00129849
0.0113749
0.00142273
0.0113857
0.00157272
0.0113811
0.00172157
0.0113671
0.00191385
0.0113568
0.00208647
0.0113157
0.0023172
0.0112826
0.00251961
0.0111977
0.00278359
0.0111267
0.00299701
0.0109583
0.00330765
0.0035235
0.0108158
0.0100019
-1.09728e-06
0.0100068
1.57599e-06
0.0100153
-9.48582e-07
0.0100265
1.62141e-06
0.0100407
-5.79983e-07
0.0100568
1.57372e-06
0.0100746
6.18369e-08
0.0100935
1.59879e-06
0.0101131
7.60536e-07
0.0101335
1.50484e-06
0.0101539
1.57129e-06
0.0101753
1.52201e-06
0.0101965
2.71588e-06
0.0102189
1.59921e-06
0.0102408
3.84823e-06
0.0102642
2.09383e-06
0.0102866
4.81288e-06
0.0103103
3.36855e-06
0.0103332
5.66104e-06
0.0103569
5.20376e-06
0.0103801
7.02504e-06
0.0104039
7.07489e-06
0.010427
9.41911e-06
0.010451
9.02508e-06
0.0104738
1.26244e-05
0.0104981
1.17913e-05
0.0105204
1.61876e-05
0.0105447
1.5737e-05
0.0105669
2.05943e-05
0.0105906
2.03613e-05
0.0106128
2.67629e-05
0.0106361
2.54743e-05
0.0106577
3.47693e-05
0.0106809
3.22559e-05
0.0107017
4.37549e-05
0.0107245
4.20877e-05
0.0107451
5.35091e-05
0.0107668
5.52063e-05
0.0107876
6.52455e-05
0.0108082
7.11125e-05
0.0108289
8.01792e-05
0.0108487
9.02383e-05
0.0108689
9.84278e-05
0.0108888
0.000113788
0.010908
0.000120351
0.0109288
0.000142483
0.0109465
0.000147124
0.0109685
0.000176628
0.0109857
0.000180166
0.0110083
0.000216772
0.0110261
0.00022099
0.0110493
0.000263686
0.0110683
0.000270698
0.0110916
0.00031914
0.0111138
0.000330228
0.0111361
0.000384198
0.011162
0.00040303
0.0111856
0.000458344
0.0112115
0.000492665
0.0112401
0.000545074
0.0112651
0.000598666
0.0112963
0.000651118
0.0113232
0.000723177
0.0113541
0.000781827
0.011383
0.00087094
0.0114117
0.0009451
0.0114403
0.00105102
0.0114697
0.00114483
0.0114902
0.00127805
0.011519
0.00139391
0.0115348
0.00155695
0.011549
0.00170735
0.0115551
0.00190779
0.011559
0.00208248
0.0115339
0.00234236
0.0115165
0.00253696
0.0114653
0.00283486
0.0113721
0.00309016
0.0112939
0.0033858
0.0037062
0.0111112
0.0100018
-2.89312e-06
0.0100069
-3.56041e-06
0.0100152
-9.24514e-06
0.0100267
-9.84728e-06
0.0100406
-1.4518e-05
0.010057
-1.47575e-05
0.0100745
-1.75185e-05
0.0100937
-1.75338e-05
0.0101132
-1.87413e-05
0.0101337
-1.90452e-05
0.0101541
-1.88218e-05
0.0101755
-1.98905e-05
0.0101968
-1.85391e-05
0.0102192
-2.0806e-05
0.0102413
-1.82523e-05
0.0102646
-2.11685e-05
0.0102872
-1.78354e-05
0.010311
-2.03771e-05
0.0103339
-1.73123e-05
0.0103578
-1.86598e-05
0.0103811
-1.62388e-05
0.0104049
-1.67737e-05
0.0104283
-1.394e-05
0.0104523
-1.49906e-05
0.0104754
-1.04708e-05
0.0104997
-1.25366e-05
0.0105225
-6.58285e-06
0.0105467
-8.47471e-06
0.0105696
-2.32156e-06
0.010593
-3.04692e-06
0.0106164
3.35929e-06
0.0106389
2.98326e-06
0.0106623
1.13296e-05
0.0106844
1.01617e-05
0.0107073
2.08624e-05
0.0107292
2.02156e-05
0.0107517
3.09642e-05
0.0107728
3.41175e-05
0.0107955
4.25746e-05
0.0108158
5.08309e-05
0.0108381
5.78867e-05
0.0108587
6.96679e-05
0.0108796
7.74632e-05
0.0109012
9.22115e-05
0.0109211
0.000100415
0.0109432
0.000120431
0.0109631
0.000127239
0.0109857
0.000154007
0.0110052
0.00016061
0.0110296
0.000192405
0.0110488
0.000201782
0.0110749
0.000237579
0.0110951
0.000250543
0.0111228
0.000291461
0.0111443
0.000308712
0.0111741
0.000354366
0.0111983
0.000378874
0.0112283
0.000428298
0.0112584
0.000462585
0.0112877
0.000515757
0.011322
0.000564369
0.0113554
0.000617753
0.0113884
0.000690165
0.0114304
0.000739761
0.011459
0.000842416
0.011509
0.000895116
0.0115372
0.00102275
0.0115858
0.00109623
0.0116175
0.00124638
0.0116652
0.00134622
0.0116902
0.00153192
0.01173
0.00166761
0.0117608
0.00187692
0.0117562
0.00208711
0.0117984
0.00230017
0.01175
0.00258533
0.011746
0.00283895
0.0116777
0.00315842
0.0115864
0.00347707
0.00382869
0.0114639
0.0100017
-4.60567e-06
0.0100073
-9.17339e-06
0.0100158
-1.76919e-05
0.0100281
-2.21564e-05
0.0100422
-2.85885e-05
0.0100593
-3.19221e-05
0.0100769
-3.50555e-05
0.0100966
-3.72571e-05
0.0101159
-3.81005e-05
0.0101367
-3.98506e-05
0.0101571
-3.91964e-05
0.0101787
-4.14901e-05
0.0102002
-3.99965e-05
0.0102227
-4.33433e-05
0.0102451
-4.06182e-05
0.0102684
-4.44841e-05
0.0102913
-4.071e-05
0.0103151
-4.41656e-05
0.0103382
-4.04812e-05
0.0103621
-4.25426e-05
0.0103857
-3.98501e-05
0.0104093
-4.03658e-05
0.0104335
-3.81189e-05
0.0104568
-3.82894e-05
0.0104812
-3.4865e-05
0.0105046
-3.59335e-05
0.0105287
-3.07292e-05
0.0105522
-3.19985e-05
0.0105763
-2.64015e-05
0.0105993
-2.60537e-05
0.0106239
-2.11627e-05
0.010646
-1.91123e-05
0.0106707
-1.33851e-05
0.0106925
-1.16258e-05
0.0107164
-3.11363e-06
0.0107386
-2.00012e-06
0.0107615
8.1332e-06
0.010784
1.16298e-05
0.0108064
2.01572e-05
0.0108283
2.8917e-05
0.0108509
3.53026e-05
0.0108725
4.80792e-05
0.0108947
5.52716e-05
0.010917
6.98953e-05
0.0109383
7.90942e-05
0.0109615
9.71827e-05
0.010983
0.00010576
0.0110065
0.000130577
0.0110288
0.000138308
0.0110537
0.00016742
0.011075
0.000180475
0.0111043
0.00020836
0.0111245
0.000230293
0.0111564
0.000259623
0.0111799
0.000285202
0.0112118
0.000322397
0.0112393
0.000351386
0.0112748
0.000392838
0.0113035
0.000433916
0.0113442
0.000475059
0.0113762
0.000532274
0.0114194
0.000574637
0.0114584
0.00065114
0.0115023
0.000695856
0.0115496
0.000795118
0.0115957
0.000849015
0.0116482
0.000970269
0.0116971
0.00104725
0.0117605
0.00118303
0.0117962
0.00131057
0.0118781
0.00145001
0.0119054
0.00164027
0.0119655
0.00181676
0.0120146
0.00203809
0.0120261
0.00228865
0.0120542
0.00255717
0.0120432
0.00284995
0.0120088
0.00319289
0.0119339
0.0035519
0.00392771
0.0118349
0.0100017
-6.2918e-06
0.0100079
-1.54353e-05
0.0100172
-2.69071e-05
0.0100307
-3.5701e-05
0.0100458
-4.36337e-05
0.0100638
-4.99663e-05
0.010082
-5.32471e-05
0.010102
-5.72872e-05
0.0101217
-5.78096e-05
0.0101424
-6.05557e-05
0.0101633
-6.01006e-05
0.0101848
-6.29764e-05
0.0102071
-6.2296e-05
0.0102294
-6.55819e-05
0.0102527
-6.40031e-05
0.0102753
-6.70793e-05
0.0102995
-6.48434e-05
0.0103222
-6.68894e-05
0.0103468
-6.50387e-05
0.0103696
-6.54015e-05
0.0103944
-6.46403e-05
0.0104174
-6.33488e-05
0.0104424
-6.30839e-05
0.0104655
-6.14399e-05
0.0104904
-5.97456e-05
0.010514
-5.95247e-05
0.0105384
-5.51055e-05
0.0105625
-5.61609e-05
0.0105864
-5.02607e-05
0.0106106
-5.03098e-05
0.0106345
-4.49867e-05
0.0106582
-4.28536e-05
0.0106822
-3.73535e-05
0.0107056
-3.50126e-05
0.0107291
-2.66318e-05
0.0107527
-2.55997e-05
0.0107755
-1.47006e-05
0.0107989
-1.17358e-05
0.0108221
-3.055e-06
0.0108444
6.55168e-06
0.0108682
1.15318e-05
0.0108905
2.57609e-05
0.0109135
3.23483e-05
0.0109375
4.58104e-05
0.0109586
5.80021e-05
0.0109849
7.08871e-05
0.0110056
8.50585e-05
0.0110322
0.00010402
0.0110553
0.000115192
0.0110809
0.000141863
0.0111067
0.000154619
0.0111339
0.000181202
0.0111595
0.000204621
0.0111924
0.000226784
0.0112166
0.000260967
0.0112548
0.000284186
0.0112819
0.000324315
0.0113213
0.000353456
0.0113569
0.00039829
0.0113939
0.000438051
0.0114424
0.000483781
0.0114758
0.000541289
0.0115377
0.000589235
0.0115706
0.000662953
0.0116461
0.000719548
0.0116774
0.000817755
0.0117677
0.000879918
0.0118096
0.00100543
0.0118886
0.00110404
0.0119683
0.00123084
0.0120262
0.00139211
0.0121162
0.00155022
0.0121887
0.00174427
0.0122531
0.00197375
0.0123121
0.00222962
0.0123724
0.0024969
0.0123734
0.00284892
0.0123824
0.00318389
0.0123358
0.00359849
0.00402166
0.0122419
0.010002
-8.32648e-06
0.0100092
-2.25791e-05
0.0100202
-3.79137e-05
0.0100351
-5.06392e-05
0.0100523
-6.07804e-05
0.010071
-6.87045e-05
0.0100906
-7.28418e-05
0.0101104
-7.70983e-05
0.010131
-7.83536e-05
0.0101513
-8.09037e-05
0.0101731
-8.19073e-05
0.0101947
-8.45267e-05
0.0102177
-8.53475e-05
0.0102401
-8.79929e-05
0.0102639
-8.78205e-05
0.0102867
-8.98327e-05
0.0103111
-8.92112e-05
0.0103339
-8.9737e-05
0.0103587
-8.98526e-05
0.0103817
-8.83343e-05
0.0104068
-8.98171e-05
0.0104299
-8.63773e-05
0.0104553
-8.85687e-05
0.0104785
-8.45673e-05
0.0105041
-8.53375e-05
0.0105275
-8.29365e-05
0.0105528
-8.04268e-05
0.0105767
-8.0044e-05
0.0106015
-7.51191e-05
0.0106257
-7.44374e-05
0.0106503
-6.96587e-05
0.0106742
-6.66965e-05
0.0106989
-6.21176e-05
0.0107225
-5.85763e-05
0.0107468
-5.09521e-05
0.010771
-4.98012e-05
0.0107939
-3.76026e-05
0.0108194
-3.72471e-05
0.010841
-2.46461e-05
0.0108668
-1.92298e-05
0.0108888
-1.04944e-05
0.0109139
6.82482e-07
0.0109368
9.51802e-06
0.0109623
2.02906e-05
0.0109841
3.62033e-05
0.0110121
4.28805e-05
0.0110331
6.40017e-05
0.0110619
7.52362e-05
0.0110856
9.15358e-05
0.0111134
0.000114008
0.0111399
0.000128137
0.0111696
0.000151492
0.0111974
0.000176835
0.0112294
0.000194807
0.0112626
0.000227737
0.0112926
0.00025424
0.0113361
0.000280756
0.0113636
0.000326015
0.0114168
0.000345018
0.0114462
0.000408638
0.0115061
0.000423884
0.0115427
0.000504699
0.0116066
0.000525413
0.0116572
0.000612314
0.0117184
0.00065836
0.0117927
0.000743413
0.0118553
0.000817338
0.0119382
0.000922509
0.0120267
0.00101561
0.0121103
0.00114718
0.0122088
0.00129363
0.012321
0.00143805
0.0124053
0.00165991
0.012524
0.00185508
0.0126208
0.00213281
0.0126918
0.00242591
0.0127664
0.00277433
0.0127998
0.00315045
0.0127811
0.00361724
0.00407979
0.012723
0.0100028
-1.1155e-05
0.0100117
-3.14988e-05
0.0100255
-5.16849e-05
0.010043
-6.81518e-05
0.0100625
-8.02167e-05
0.0100826
-8.88008e-05
0.0101028
-9.30773e-05
0.0101231
-9.74401e-05
0.0101436
-9.88524e-05
0.010165
-0.000102247
0.0101867
-0.000103609
0.0102099
-0.000107702
0.0102321
-0.000107624
0.0102566
-0.000112413
0.0102789
-0.000110157
0.0103038
-0.000114749
0.0103265
-0.000111879
0.0103513
-0.000114547
0.0103749
-0.000113447
0.0103991
-0.0001126
0.010424
-0.000114676
0.0104475
-0.000109908
0.0104735
-0.00011454
0.0104966
-0.000107668
0.010523
-0.000111698
0.0105464
-0.000106352
0.0105723
-0.00010634
0.0105965
-0.00010421
0.0106217
-0.000100323
0.0106464
-9.9202e-05
0.010671
-9.42398e-05
0.0106963
-9.19632e-05
0.01072
-8.58304e-05
0.0107462
-8.47606e-05
0.0107685
-7.32845e-05
0.010796
-7.72384e-05
0.010817
-5.86426e-05
0.010845
-6.52637e-05
0.0108661
-4.57864e-05
0.0108929
-4.60208e-05
0.0109165
-3.40408e-05
0.0109407
-2.35392e-05
0.0109662
-1.60211e-05
0.010991
-4.50057e-06
0.0110141
1.3118e-05
0.0110449
1.2124e-05
0.0110632
4.57119e-05
0.0110985
3.99336e-05
0.0111181
7.18758e-05
0.0111506
8.1529e-05
0.0111783
0.0001004
0.0112071
0.000122694
0.0112402
0.000143756
0.0112717
0.000163318
0.0113058
0.000193638
0.0113443
0.00021576
0.0113785
0.000246574
0.0114261
0.000278383
0.0114612
0.000309971
0.0115178
0.000351955
0.0115566
0.000385081
0.011624
0.00043732
0.0116675
0.000481898
0.0117454
0.000534447
0.0118037
0.000600035
0.0118835
0.00066359
0.0119652
0.000735649
0.0120588
0.000828942
0.0121479
0.000926462
0.0122715
0.00102367
0.0123821
0.00118294
0.0125085
0.00131166
0.0126534
0.00151509
0.0127961
0.00171229
0.0129256
0.00200331
0.0130711
0.00228044
0.0131851
0.00266033
0.0132622
0.0030734
0.0133231
0.00355632
0.00414438
0.0132585
0.0100041
-1.52766e-05
0.0100166
-4.39995e-05
0.0100349
-6.99247e-05
0.0100565
-8.97456e-05
0.0100781
-0.000101899
0.0100994
-0.000110076
0.0101199
-0.000113545
0.0101407
-0.00011821
0.0101618
-0.000120029
0.0101841
-0.000124568
0.0102067
-0.000126163
0.0102307
-0.000131678
0.0102534
-0.00013038
0.0102786
-0.000137564
0.0103007
-0.00013224
0.0103267
-0.000140744
0.0103484
-0.000133617
0.010375
-0.000141105
0.0103971
-0.00013557
0.0104236
-0.00013911
0.0104468
-0.000137852
0.0104725
-0.000135635
0.0104971
-0.000139183
0.0105217
-0.000132238
0.0105477
-0.000137694
0.0105713
-0.000129981
0.0105982
-0.000133231
0.0106211
-0.000127118
0.0106488
-0.000127959
0.0106709
-0.000121297
0.0106991
-0.000122505
0.0107207
-0.000113551
0.0107489
-0.00011397
0.0107709
-0.000106798
0.0107979
-0.000100316
0.0108211
-0.000100454
0.0108467
-8.41894e-05
0.0108711
-8.96385e-05
0.0108958
-7.05054e-05
0.0109202
-7.04923e-05
0.0109461
-5.98931e-05
0.0109684
-4.58008e-05
0.0109977
-4.53799e-05
0.0110173
-2.40888e-05
0.0110492
-1.87743e-05
0.0110695
-8.20917e-06
0.011101
1.42448e-05
0.0111248
1.61588e-05
0.0111556
4.10808e-05
0.0111815
5.55587e-05
0.0112149
6.70141e-05
0.0112429
9.46914e-05
0.0112775
0.000109226
0.0113126
0.000128166
0.0113442
0.000162005
0.0113915
0.000168495
0.0114201
0.000217967
0.0114774
0.000221093
0.0115139
0.000273493
0.0115667
0.000299127
0.0116274
0.000324345
0.0116746
0.000390147
0.0117468
0.000409693
0.0118192
0.000462095
0.0118809
0.000538346
0.0119845
0.000559946
0.0120626
0.000657546
0.012161
0.0007306
0.0122939
0.000793495
0.0123969
0.00092066
0.0125524
0.00102746
0.012705
0.00115909
0.0128883
0.00133183
0.0130562
0.00154431
0.0132785
0.00178105
0.013448
0.0021109
0.013655
0.00245335
0.0137845
0.0029439
0.0139374
0.00340348
0.00414576
0.013936
0.0100068
-2.20871e-05
0.010027
-6.4188e-05
0.0100517
-9.46235e-05
0.0100773
-0.000115387
0.0101005
-0.000125031
0.010123
-0.000132559
0.0101438
-0.000134411
0.0101652
-0.000139546
0.0101876
-0.000142519
0.0102109
-0.000147862
0.0102351
-0.000150314
0.0102593
-0.000155854
0.0102831
-0.000154204
0.0103075
-0.000161923
0.0103304
-0.000155217
0.0103553
-0.000165595
0.0103778
-0.00015613
0.0104033
-0.000166635
0.0104257
-0.000157906
0.0104516
-0.000165082
0.010474
-0.000160176
0.0104999
-0.000161538
0.0105225
-0.000161829
0.0105476
-0.000157335
0.0105711
-0.000161237
0.0105947
-0.000153497
0.0106197
-0.000158236
0.010641
-0.000148417
0.0106679
-0.000154885
0.0106867
-0.000140157
0.0107152
-0.000150923
0.0107328
-0.000131203
0.0107605
-0.000141684
0.0107799
-0.000126169
0.0108038
-0.000124224
0.0108277
-0.000124292
0.0108461
-0.00010259