/*--------------------------------*- C++ -*----------------------------------*\
| =========                 |                                                 |
| \\      /  F ield         | OpenFOAM: The Open Source CFD Toolbox           |
|  \\    /   O peration     | Version:  2306                                  |
|   \\  /    A nd           | Website:  www.openfoam.com                      |
|    \\/     M anipulation  |                                                 |
\*---------------------------------------------------------------------------*/
FoamFile
{
    version     2.0;
    format      ascii;
    arch        "LSB;label=32;scalar=64";
    class       volVectorField;
    location    "0.475";
    object      U;
}
// * * * * * * * * * * * * * * * * * * * * * * * * * * * * * * * * * * * * * //

dimensions      [0 1 -1 0 0 0 0];

internalField   nonuniform List<vector> 
4400
(
(9.90179 0.0455316 0)
(9.80626 0.0986949 0)
(9.70006 0.120967 0)
(9.57017 0.125783 0)
(9.4182 0.124483 0)
(9.25218 0.123459 0)
(9.08063 0.12413 0)
(8.90819 0.125698 0)
(8.73728 0.126971 0)
(8.56778 0.127419 0)
(8.40013 0.126871 0)
(8.23334 0.125546 0)
(8.06797 0.123777 0)
(7.90324 0.121728 0)
(7.73998 0.119682 0)
(7.57761 0.117519 0)
(7.41694 0.11545 0)
(7.25757 0.113243 0)
(7.10008 0.111076 0)
(6.94413 0.108779 0)
(6.79021 0.106451 0)
(6.63803 0.104057 0)
(6.48805 0.101607 0)
(6.33985 0.0991596 0)
(6.19405 0.0966342 0)
(6.05 0.0941428 0)
(5.90862 0.091631 0)
(5.76883 0.0891419 0)
(5.632 0.0866602 0)
(5.49651 0.0842198 0)
(5.36427 0.0818371 0)
(5.23305 0.0795133 0)
(5.10528 0.0772545 0)
(4.97811 0.0750751 0)
(4.8545 0.0730056 0)
(4.73097 0.0710355 0)
(4.61099 0.0692232 0)
(4.49041 0.0675829 0)
(4.37324 0.0661729 0)
(4.25466 0.0649784 0)
(4.13913 0.0641476 0)
(4.0213 0.063548 0)
(3.90589 0.0634892 0)
(3.78718 0.0636214 0)
(3.67003 0.0644576 0)
(3.54831 0.0654482 0)
(3.42709 0.0673199 0)
(3.29966 0.0693156 0)
(3.17148 0.0723339 0)
(3.03504 0.0754859 0)
(2.89644 0.0797455 0)
(2.74713 0.084187 0)
(2.5941 0.0897545 0)
(2.42757 0.0954677 0)
(2.25569 0.102294 0)
(2.06734 0.108976 0)
(1.87217 0.116696 0)
(1.65768 0.123536 0)
(1.4356 0.131106 0)
(1.19206 0.136461 0)
(0.941551 0.141465 0)
(0.66893 0.141745 0)
(0.39164 0.135114 0)
(0.111889 0.103376 0)
(-0.140849 0.0487213 0)
(-0.390027 -0.0346777 0)
(-0.567488 -0.126392 0)
(-0.686449 -0.236433 0)
(-0.696096 -0.359738 0)
(-0.633126 -0.499003 0)
(-0.433641 -0.622459 0)
(-0.175736 -0.707809 0)
(0.112561 -0.569553 0)
(0.272767 -0.212426 0)
(0.363486 0.493524 0)
(-0.398767 0.902596 0)
(-0.579387 0.291181 0)
(-0.203636 -0.0653634 0)
(0.00855205 -0.0769365 0)
(-0.205842 -0.237495 0)
(10.0002 0.061234 0)
(10.0318 0.137418 0)
(10.0697 0.173615 0)
(10.1049 0.184958 0)
(10.1327 0.186125 0)
(10.1499 0.186293 0)
(10.1591 0.188207 0)
(10.1608 0.192037 0)
(10.1593 0.195835 0)
(10.1536 0.199185 0)
(10.1469 0.201043 0)
(10.1367 0.202078 0)
(10.1253 0.202095 0)
(10.1106 0.201868 0)
(10.0941 0.201292 0)
(10.0746 0.200735 0)
(10.053 0.200088 0)
(10.0291 0.199361 0)
(10.0028 0.198621 0)
(9.97471 0.197649 0)
(9.94447 0.196664 0)
(9.91224 0.19548 0)
(9.87855 0.1942 0)
(9.84227 0.192891 0)
(9.80544 0.191355 0)
(9.76523 0.189924 0)
(9.72548 0.188244 0)
(9.68145 0.186756 0)
(9.63887 0.184942 0)
(9.59119 0.18351 0)
(9.54578 0.18158 0)
(9.49456 0.180322 0)
(9.44621 0.178374 0)
(9.39142 0.177316 0)
(9.33999 0.175501 0)
(9.28142 0.174759 0)
(9.22668 0.173226 0)
(9.164 0.172964 0)
(9.10543 0.171951 0)
(9.03828 0.172298 0)
(8.97497 0.17213 0)
(8.90276 0.173293 0)
(8.8336 0.174265 0)
(8.75538 0.176712 0)
(8.67906 0.17903 0)
(8.59339 0.183295 0)
(8.50833 0.18725 0)
(8.4132 0.1938 0)
(8.3174 0.199847 0)
(8.21015 0.209117 0)
(8.1011 0.217711 0)
(7.9785 0.230181 0)
(7.8529 0.241694 0)
(7.71113 0.25788 0)
(7.56477 0.272437 0)
(7.39943 0.29273 0)
(7.22725 0.310108 0)
(7.03327 0.334352 0)
(6.82967 0.353808 0)
(6.60152 0.380584 0)
(6.36063 0.400129 0)
(6.09302 0.425704 0)
(5.80893 0.440133 0)
(5.49849 0.456198 0)
(5.17391 0.453784 0)
(4.82975 0.450338 0)
(4.4492 0.417284 0)
(4.04359 0.384628 0)
(3.56684 0.323166 0)
(3.04207 0.282853 0)
(2.35324 0.215193 0)
(1.52744 0.220725 0)
(0.474616 0.146376 0)
(-0.211693 0.00682675 0)
(-0.602686 0.0921316 0)
(-0.540515 0.00699337 0)
(-0.235439 -0.574373 0)
(-0.6069 -0.641429 0)
(-0.603872 0.0990942 0)
(-0.579298 0.583078 0)
(10.0002 0.0268863 0)
(10.0167 0.0695566 0)
(10.0429 0.100023 0)
(10.0747 0.117382 0)
(10.1085 0.126912 0)
(10.1393 0.131834 0)
(10.1673 0.13589 0)
(10.1909 0.140403 0)
(10.213 0.14526 0)
(10.233 0.150477 0)
(10.2533 0.154832 0)
(10.2733 0.158763 0)
(10.2931 0.161701 0)
(10.3134 0.164084 0)
(10.3319 0.166221 0)
(10.3516 0.167684 0)
(10.3682 0.169673 0)
(10.3869 0.170635 0)
(10.4016 0.172609 0)
(10.4187 0.173223 0)
(10.4318 0.174936 0)
(10.4471 0.175402 0)
(10.4588 0.176671 0)
(10.472 0.177112 0)
(10.4821 0.177978 0)
(10.493 0.178336 0)
(10.5014 0.179018 0)
(10.5099 0.1793 0)
(10.5163 0.179853 0)
(10.5222 0.180192 0)
(10.5263 0.180657 0)
(10.5295 0.181146 0)
(10.5311 0.181761 0)
(10.5314 0.182383 0)
(10.5302 0.1834 0)
(10.5272 0.184393 0)
(10.5229 0.185876 0)
(10.5165 0.187636 0)
(10.5087 0.189786 0)
(10.4984 0.192479 0)
(10.4865 0.195913 0)
(10.472 0.199503 0)
(10.4556 0.205032 0)
(10.4362 0.209688 0)
(10.4143 0.21805 0)
(10.3896 0.224166 0)
(10.3611 0.23598 0)
(10.3304 0.244308 0)
(10.2941 0.259883 0)
(10.2555 0.271657 0)
(10.211 0.291044 0)
(10.1618 0.307525 0)
(10.1086 0.331173 0)
(10.0456 0.352945 0)
(9.9823 0.381928 0)
(9.90277 0.408649 0)
(9.82597 0.444205 0)
(9.72812 0.474749 0)
(9.63208 0.517072 0)
(9.51443 0.549586 0)
(9.39183 0.596147 0)
(9.25095 0.626996 0)
(9.09343 0.671418 0)
(8.9221 0.692937 0)
(8.71857 0.724838 0)
(8.50497 0.727985 0)
(8.23362 0.740685 0)
(7.94808 0.727964 0)
(7.58699 0.739405 0)
(7.20054 0.74545 0)
(6.72843 0.806784 0)
(6.20897 0.877569 0)
(5.62642 1.00148 0)
(4.95509 0.990258 0)
(4.35257 0.908816 0)
(3.33285 0.760524 0)
(2.67279 0.508394 0)
(1.30212 0.370281 0)
(-0.0262825 -0.0727284 0)
(-0.221584 -0.397464 0)
(10.0002 0.0190109 0)
(10.01 0.0523583 0)
(10.0279 0.080881 0)
(10.051 0.100965 0)
(10.0782 0.114931 0)
(10.105 0.122955 0)
(10.132 0.128483 0)
(10.156 0.132537 0)
(10.1797 0.136241 0)
(10.2013 0.140451 0)
(10.2236 0.143798 0)
(10.2454 0.147805 0)
(10.2682 0.150046 0)
(10.2913 0.15308 0)
(10.3142 0.154284 0)
(10.3382 0.156351 0)
(10.3607 0.157246 0)
(10.385 0.15859 0)
(10.407 0.159741 0)
(10.431 0.160462 0)
(10.4527 0.161874 0)
(10.4761 0.162239 0)
(10.4978 0.163636 0)
(10.5203 0.163927 0)
(10.542 0.165134 0)
(10.5633 0.165459 0)
(10.5849 0.166602 0)
(10.6047 0.167013 0)
(10.626 0.168082 0)
(10.6441 0.168885 0)
(10.6649 0.169706 0)
(10.6811 0.171282 0)
(10.7012 0.171856 0)
(10.7151 0.174355 0)
(10.7346 0.174944 0)
(10.7456 0.178483 0)
(10.7644 0.179439 0)
(10.7724 0.184023 0)
(10.7898 0.186094 0)
(10.7954 0.191384 0)
(10.8102 0.195636 0)
(10.8137 0.201593 0)
(10.8254 0.208404 0)
(10.8264 0.216104 0)
(10.8352 0.225054 0)
(10.8327 0.235869 0)
(10.8383 0.247192 0)
(10.8327 0.261488 0)
(10.8334 0.276748 0)
(10.8259 0.294139 0)
(10.8193 0.315051 0)
(10.8113 0.335947 0)
(10.7958 0.362818 0)
(10.7864 0.389608 0)
(10.7629 0.420456 0)
(10.7483 0.457241 0)
(10.7204 0.4889 0)
(10.6938 0.538303 0)
(10.6648 0.569886 0)
(10.6213 0.628834 0)
(10.5876 0.662526 0)
(10.5261 0.723377 0)
(10.4786 0.759193 0)
(10.3922 0.814642 0)
(10.3214 0.84827 0)
(10.1922 0.894751 0)
(10.0852 0.928742 0)
(9.89277 0.974937 0)
(9.73441 1.02547 0)
(9.4625 1.09252 0)
(9.24228 1.17967 0)
(8.87504 1.28233 0)
(8.58977 1.38487 0)
(8.10257 1.4684 0)
(7.71606 1.49764 0)
(7.10288 1.53105 0)
(6.51176 1.50265 0)
(5.83422 1.52731 0)
(4.89635 1.52224 0)
(4.05845 1.27126 0)
(10.0002 0.0134218 0)
(10.0068 0.0382267 0)
(10.0198 0.0606622 0)
(10.0368 0.0775982 0)
(10.0588 0.0907561 0)
(10.0812 0.0987092 0)
(10.1063 0.104602 0)
(10.1283 0.108157 0)
(10.1527 0.1114 0)
(10.1729 0.114453 0)
(10.1968 0.11726 0)
(10.2164 0.120507 0)
(10.241 0.122708 0)
(10.2614 0.125591 0)
(10.2868 0.126923 0)
(10.3079 0.129117 0)
(10.3335 0.129988 0)
(10.3551 0.131546 0)
(10.3807 0.13257 0)
(10.402 0.133509 0)
(10.428 0.13498 0)
(10.4487 0.135437 0)
(10.4753 0.13726 0)
(10.495 0.137426 0)
(10.522 0.139432 0)
(10.5409 0.139457 0)
(10.5682 0.14176 0)
(10.586 0.141577 0)
(10.6132 0.14437 0)
(10.6301 0.144091 0)
(10.6569 0.147367 0)
(10.6728 0.14734 0)
(10.6989 0.151025 0)
(10.7137 0.15154 0)
(10.7389 0.155727 0)
(10.7524 0.157268 0)
(10.7766 0.161552 0)
(10.7887 0.165404 0)
(10.8116 0.168883 0)
(10.8222 0.176236 0)
(10.8435 0.179202 0)
(10.8529 0.18944 0)
(10.8716 0.194268 0)
(10.8808 0.205521 0)
(10.8956 0.214708 0)
(10.9054 0.226412 0)
(10.9161 0.240494 0)
(10.9258 0.254394 0)
(10.9332 0.272388 0)
(10.9418 0.290978 0)
(10.9471 0.312304 0)
(10.9532 0.336995 0)
(10.9582 0.36293 0)
(10.9602 0.392691 0)
(10.9661 0.427156 0)
(10.9641 0.458681 0)
(10.9699 0.50531 0)
(10.9635 0.538376 0)
(10.9719 0.593565 0)
(10.9534 0.634183 0)
(10.9707 0.690247 0)
(10.932 0.739935 0)
(10.9532 0.797667 0)
(10.8961 0.847734 0)
(10.9035 0.913297 0)
(10.8256 0.96207 0)
(10.8093 1.03737 0)
(10.694 1.09853 0)
(10.6489 1.18939 0)
(10.4873 1.27391 0)
(10.3948 1.392 0)
(10.1937 1.50326 0)
(10.0306 1.63431 0)
(9.79027 1.76298 0)
(9.53099 1.86384 0)
(9.23172 1.97914 0)
(8.83139 2.03733 0)
(8.4188 2.08181 0)
(7.81561 2.10028 0)
(7.13524 1.97166 0)
(10.0012 0.00962683 0)
(10.0041 0.0278555 0)
(10.0163 0.0450238 0)
(10.0276 0.0584091 0)
(10.0479 0.070307 0)
(10.065 0.077278 0)
(10.0898 0.083879 0)
(10.1083 0.0865565 0)
(10.1342 0.0906637 0)
(10.1519 0.0921133 0)
(10.178 0.0956602 0)
(10.195 0.0971179 0)
(10.2219 0.100273 0)
(10.2392 0.101782 0)
(10.2669 0.104094 0)
(10.2849 0.105429 0)
(10.3129 0.106971 0)
(10.3319 0.108045 0)
(10.3594 0.109399 0)
(10.3791 0.110082 0)
(10.4061 0.111735 0)
(10.4262 0.112115 0)
(10.4528 0.114011 0)
(10.473 0.114357 0)
(10.4992 0.116259 0)
(10.5195 0.116846 0)
(10.5452 0.118763 0)
(10.5653 0.119541 0)
(10.5904 0.121701 0)
(10.6103 0.122799 0)
(10.6343 0.12504 0)
(10.6544 0.127264 0)
(10.6767 0.128707 0)
(10.6968 0.133339 0)
(10.7182 0.133309 0)
(10.7367 0.140916 0)
(10.7585 0.139897 0)
(10.7742 0.150026 0)
(10.7968 0.149141 0)
(10.8094 0.161419 0)
(10.8329 0.16136 0)
(10.842 0.17608 0)
(10.8668 0.177299 0)
(10.8719 0.194641 0)
(10.8984 0.198255 0)
(10.8989 0.217645 0)
(10.9281 0.22581 0)
(10.9224 0.245897 0)
(10.9566 0.261622 0)
(10.9428 0.280399 0)
(10.983 0.307299 0)
(10.9626 0.323126 0)
(11.0061 0.36274 0)
(10.9828 0.378514 0)
(11.0275 0.426178 0)
(11.0024 0.449468 0)
(11.048 0.500411 0)
(11.0238 0.532183 0)
(11.0649 0.590757 0)
(11.0463 0.625691 0)
(11.0805 0.692334 0)
(11.0603 0.737646 0)
(11.0963 0.798558 0)
(11.06 0.867136 0)
(11.0962 0.920192 0)
(11.0474 1.00745 0)
(11.0616 1.06918 0)
(11.0081 1.17432 0)
(10.9894 1.24734 0)
(10.9193 1.38849 0)
(10.8709 1.4728 0)
(10.7768 1.64396 0)
(10.6875 1.76521 0)
(10.5786 1.92069 0)
(10.4205 2.09253 0)
(10.2871 2.19713 0)
(10.0337 2.37026 0)
(9.79534 2.44176 0)
(9.43725 2.54957 0)
(8.97491 2.58392 0)
(10.0022 0.00671826 0)
(10.0022 0.0202047 0)
(10.0145 0.0325524 0)
(10.0222 0.043068 0)
(10.0411 0.0524096 0)
(10.0551 0.0586294 0)
(10.0782 0.0642939 0)
(10.0956 0.0670187 0)
(10.1202 0.0705172 0)
(10.1383 0.0717716 0)
(10.1632 0.0746519 0)
(10.1812 0.0756685 0)
(10.2069 0.0783803 0)
(10.2249 0.0795685 0)
(10.2516 0.0815058 0)
(10.27 0.0830653 0)
(10.2971 0.0837718 0)
(10.3165 0.0859162 0)
(10.3432 0.0856235 0)
(10.3637 0.0881848 0)
(10.3894 0.0876423 0)
(10.4112 0.0902784 0)
(10.4355 0.0898998 0)
(10.4586 0.0925411 0)
(10.4812 0.0923463 0)
(10.5058 0.0951841 0)
(10.5267 0.0951796 0)
(10.5518 0.0981271 0)
(10.5723 0.0986972 0)
(10.5965 0.101507 0)
(10.6174 0.103202 0)
(10.6399 0.105552 0)
(10.6613 0.108967 0)
(10.6821 0.110612 0)
(10.7041 0.116215 0)
(10.7222 0.117437 0)
(10.7461 0.124803 0)
(10.7598 0.127158 0)
(10.7872 0.134693 0)
(10.7945 0.140519 0)
(10.8272 0.146862 0)
(10.8264 0.157341 0)
(10.8662 0.16326 0)
(10.8558 0.177207 0)
(10.9029 0.185576 0)
(10.8844 0.200868 0)
(10.9358 0.214408 0)
(10.9136 0.230639 0)
(10.9649 0.249255 0)
(10.9429 0.269651 0)
(10.9922 0.290237 0)
(10.9713 0.318815 0)
(11.0189 0.341524 0)
(11.0004 0.37539 0)
(11.0443 0.407612 0)
(11.0313 0.441336 0)
(11.07 0.484675 0)
(11.0623 0.524663 0)
(11.0975 0.569465 0)
(11.094 0.623976 0)
(11.1222 0.670577 0)
(11.1273 0.732682 0)
(11.1427 0.790806 0)
(11.1519 0.860395 0)
(11.1627 0.924028 0)
(11.1577 1.0159 0)
(11.17 1.08576 0)
(11.1489 1.19293 0)
(11.146 1.29722 0)
(11.1194 1.40617 0)
(11.0896 1.55289 0)
(11.0546 1.6864 0)
(11.0015 1.84017 0)
(10.9437 2.03319 0)
(10.872 2.16137 0)
(10.77 2.38162 0)
(10.6495 2.53134 0)
(10.4978 2.67041 0)
(10.258 2.89131 0)
(10.0169 2.94643 0)
(10.0026 0.00427755 0)
(10.0016 0.0141097 0)
(10.013 0.0218977 0)
(10.0197 0.0300562 0)
(10.0362 0.0361028 0)
(10.0498 0.0415146 0)
(10.0698 0.0452007 0)
(10.0882 0.0480958 0)
(10.1096 0.0502571 0)
(10.1302 0.0517433 0)
(10.1518 0.0535069 0)
(10.1731 0.0544622 0)
(10.1952 0.0564918 0)
(10.2165 0.0572378 0)
(10.2397 0.059113 0)
(10.261 0.0599501 0)
(10.2853 0.0610833 0)
(10.3068 0.0624461 0)
(10.3316 0.0626752 0)
(10.3534 0.0646429 0)
(10.3784 0.0645098 0)
(10.4002 0.0667227 0)
(10.4251 0.0667555 0)
(10.4471 0.0689691 0)
(10.4713 0.0694618 0)
(10.4942 0.0715397 0)
(10.517 0.0729471 0)
(10.5406 0.0741665 0)
(10.5627 0.07766 0)
(10.5855 0.077045 0)
(10.6084 0.0834772 0)
(10.6289 0.0811192 0)
(10.6537 0.0898465 0)
(10.6707 0.0872958 0)
(10.6984 0.0970682 0)
(10.7104 0.0955138 0)
(10.7427 0.106321 0)
(10.7476 0.105478 0)
(10.7864 0.118324 0)
(10.7828 0.118162 0)
(10.8285 0.132714 0)
(10.8165 0.135438 0)
(10.8688 0.149193 0)
(10.8489 0.158486 0)
(10.907 0.168759 0)
(10.8805 0.187496 0)
(10.943 0.193648 0)
(10.9123 0.221731 0)
(10.9764 0.227259 0)
(10.9453 0.260143 0)
(11.0068 0.271866 0)
(10.9806 0.305459 0)
(11.0358 0.324898 0)
(11.0167 0.363583 0)
(11.0661 0.385406 0)
(11.0537 0.433608 0)
(11.097 0.460916 0)
(11.094 0.510446 0)
(11.1275 0.555034 0)
(11.1362 0.599448 0)
(11.1596 0.662042 0)
(11.1775 0.707839 0)
(11.1895 0.786539 0)
(11.2203 0.832539 0)
(11.2105 0.937746 0)
(11.258 0.983749 0)
(11.226 1.11019 0)
(11.2775 1.18278 0)
(11.2315 1.30915 0)
(11.2761 1.43379 0)
(11.2185 1.56083 0)
(11.249 1.72283 0)
(11.178 1.89515 0)
(11.195 2.0404 0)
(11.0961 2.28177 0)
(11.0895 2.43459 0)
(10.9657 2.63433 0)
(10.8854 2.91069 0)
(10.7298 2.98367 0)
(10.5547 3.32699 0)
(10.002 0.00185783 0)
(10.002 0.0091181 0)
(10.0113 0.0121116 0)
(10.0191 0.0185697 0)
(10.0326 0.0206893 0)
(10.0476 0.0255366 0)
(10.0639 0.0264776 0)
(10.0848 0.029755 0)
(10.1019 0.0299175 0)
(10.1266 0.0320553 0)
(10.1431 0.0322044 0)
(10.1698 0.0336419 0)
(10.1861 0.0344999 0)
(10.2133 0.0352543 0)
(10.2303 0.0366283 0)
(10.2576 0.0370286 0)
(10.2757 0.038299 0)
(10.3032 0.0389798 0)
(10.322 0.0397416 0)
(10.3496 0.0408762 0)
(10.3692 0.0416311 0)
(10.3959 0.0426601 0)
(10.4168 0.0441142 0)
(10.442 0.044743 0)
(10.4642 0.0469788 0)
(10.4884 0.0476253 0)
(10.5107 0.0502007 0)
(10.5348 0.0512655 0)
(10.5567 0.054267 0)
(10.5802 0.0555608 0)
(10.6031 0.0595826 0)
(10.6238 0.0607203 0)
(10.6495 0.0662528 0)
(10.6658 0.0673079 0)
(10.6953 0.0744246 0)
(10.7064 0.0758989 0)
(10.7404 0.0842953 0)
(10.7452 0.0871364 0)
(10.7848 0.095973 0)
(10.7822 0.101902 0)
(10.8281 0.109747 0)
(10.8181 0.120964 0)
(10.8701 0.126417 0)
(10.8525 0.144492 0)
(10.9111 0.147563 0)
(10.8863 0.17248 0)
(10.9502 0.174625 0)
(10.9214 0.206329 0)
(10.986 0.207061 0)
(10.9594 0.249045 0)
(11.0192 0.24536 0)
(11.0004 0.299733 0)
(11.0502 0.295911 0)
(11.0459 0.353668 0)
(11.0795 0.363347 0)
(11.0949 0.414376 0)
(11.1112 0.442113 0)
(11.1445 0.490887 0)
(11.1467 0.531137 0)
(11.1965 0.581813 0)
(11.1825 0.63855 0)
(11.2516 0.688626 0)
(11.2203 0.761384 0)
(11.3037 0.825619 0)
(11.2593 0.900544 0)
(11.3527 0.991995 0)
(11.2933 1.07906 0)
(11.3942 1.17971 0)
(11.3186 1.31733 0)
(11.4253 1.40018 0)
(11.3265 1.60635 0)
(11.4343 1.70354 0)
(11.3249 1.90751 0)
(11.3992 2.1124 0)
(11.2943 2.25977 0)
(11.33 2.53621 0)
(11.1912 2.74076 0)
(11.1973 2.93757 0)
(11.0099 3.27653 0)
(10.9157 3.40888 0)
(10.001 -0.00018474 0)
(10.0029 0.00415276 0)
(10.0096 0.00326834 0)
(10.0197 0.00729101 0)
(10.0299 0.00636949 0)
(10.0477 0.00954621 0)
(10.06 0.00876704 0)
(10.0845 0.0110014 0)
(10.0969 0.0104276 0)
(10.1264 0.0117353 0)
(10.1373 0.0116804 0)
(10.1701 0.0123072 0)
(10.1799 0.0131845 0)
(10.2139 0.0129023 0)
(10.224 0.0147089 0)
(10.2581 0.0137386 0)
(10.2696 0.0160489 0)
(10.3035 0.0150855 0)
(10.3161 0.0172577 0)
(10.3499 0.0168282 0)
(10.3634 0.0188621 0)
(10.3963 0.0187175 0)
(10.4114 0.0211007 0)
(10.442 0.0210711 0)
(10.46 0.0236991 0)
(10.4874 0.0244535 0)
(10.5082 0.0266707 0)
(10.5327 0.0285456 0)
(10.556 0.0311096 0)
(10.5776 0.0325767 0)
(10.6035 0.0377511 0)
(10.6215 0.0370302 0)
(10.6506 0.0457056 0)
(10.6646 0.0438396 0)
(10.6967 0.0539259 0)
(10.707 0.0539851 0)
(10.7419 0.0631276 0)
(10.7479 0.0666751 0)
(10.7867 0.07529 0)
(10.7873 0.0812113 0)
(10.8307 0.091255 0)
(10.8261 0.0988418 0)
(10.8725 0.110093 0)
(10.8658 0.122296 0)
(10.912 0.130478 0)
(10.9058 0.153543 0)
(10.951 0.153852 0)
(10.9456 0.190592 0)
(10.9893 0.186004 0)
(10.9879 0.229428 0)
(11.0248 0.230526 0)
(11.0351 0.273204 0)
(11.0582 0.282483 0)
(11.0866 0.329891 0)
(11.0916 0.340599 0)
(11.1438 0.397213 0)
(11.1232 0.413947 0)
(11.2085 0.471788 0)
(11.1567 0.502388 0)
(11.2737 0.563563 0)
(11.2008 0.603407 0)
(11.3341 0.672284 0)
(11.2547 0.731834 0)
(11.393 0.793171 0)
(11.3128 0.892341 0)
(11.4518 0.945349 0)
(11.3715 1.07368 0)
(11.5048 1.15801 0)
(11.434 1.27043 0)
(11.543 1.44042 0)
(11.4865 1.52701 0)
(11.5804 1.74155 0)
(11.5029 1.91312 0)
(11.5957 2.05935 0)
(11.5067 2.37653 0)
(11.5319 2.49596 0)
(11.4814 2.8392 0)
(11.4039 3.05025 0)
(11.3288 3.35769 0)
(11.2166 3.63002 0)
(9.99943 -0.00202626 0)
(10.0046 -0.000984554 0)
(10.0078 -0.00513349 0)
(10.0214 -0.00404556 0)
(10.0283 -0.00750771 0)
(10.0493 -0.00645573 0)
(10.0586 -0.00864175 0)
(10.086 -0.00783318 0)
(10.0956 -0.0088822 0)
(10.1278 -0.00876769 0)
(10.1362 -0.0085536 0)
(10.1717 -0.00933613 0)
(10.1789 -0.00774672 0)
(10.2155 -0.00977881 0)
(10.2233 -0.00695806 0)
(10.2594 -0.00963638 0)
(10.2696 -0.00639579 0)
(10.3042 -0.00842423 0)
(10.317 -0.00597999 0)
(10.3501 -0.00642781 0)
(10.3651 -0.00494569 0)
(10.3963 -0.00450019 0)
(10.4136 -0.00248198 0)
(10.4422 -0.00291611 0)
(10.4625 0.00129846 0)
(10.4881 -0.000790363 0)
(10.5109 0.00548109 0)
(10.5343 0.00291434 0)
(10.5585 0.00995098 0)
(10.5804 0.00797901 0)
(10.606 0.0158346 0)
(10.6254 0.0135568 0)
(10.6536 0.0240033 0)
(10.6695 0.0201929 0)
(10.7004 0.0337125 0)
(10.7135 0.0297241 0)
(10.7455 0.0438636 0)
(10.7574 0.0432584 0)
(10.7894 0.0550684 0)
(10.8004 0.0605272 0)
(10.833 0.0687428 0)
(10.8422 0.081176 0)
(10.8762 0.0861201 0)
(10.884 0.10485 0)
(10.9177 0.109461 0)
(10.9276 0.13064 0)
(10.9572 0.139925 0)
(10.9728 0.161351 0)
(10.9967 0.174069 0)
(11.0191 0.202762 0)
(11.0364 0.210721 0)
(11.0698 0.253334 0)
(11.0733 0.257346 0)
(11.1278 0.30789 0)
(11.1105 0.317874 0)
(11.188 0.370049 0)
(11.1553 0.390203 0)
(11.2489 0.442289 0)
(11.2043 0.480586 0)
(11.319 0.522241 0)
(11.2542 0.590817 0)
(11.3936 0.623809 0)
(11.3176 0.709679 0)
(11.4609 0.764112 0)
(11.3988 0.839906 0)
(11.5246 0.940718 0)
(11.4865 1.01363 0)
(11.5948 1.12737 0)
(11.57 1.27313 0)
(11.6628 1.33676 0)
(11.6646 1.5815 0)
(11.7006 1.65968 0)
(11.7558 1.89915 0)
(11.7375 2.09779 0)
(11.7661 2.3082 0)
(11.7878 2.58139 0)
(11.6991 2.84413 0)
(11.7361 3.14754 0)
(11.6027 3.43616 0)
(11.523 3.81627 0)
(9.99867 -0.00387168 0)
(10.0053 -0.00634984 0)
(10.0076 -0.0136308 0)
(10.0224 -0.0157752 0)
(10.0293 -0.0214558 0)
(10.0507 -0.0228213 0)
(10.0615 -0.026088 0)
(10.0875 -0.0269019 0)
(10.0998 -0.0283155 0)
(10.1292 -0.029181 0)
(10.1412 -0.0291817 0)
(10.1732 -0.0305722 0)
(10.1839 -0.0294858 0)
(10.2174 -0.0318154 0)
(10.2282 -0.0295628 0)
(10.262 -0.0325153 0)
(10.2744 -0.029325 0)
(10.3076 -0.0321553 0)
(10.3216 -0.0288108 0)
(10.3543 -0.0308164 0)
(10.3694 -0.0276881 0)
(10.4014 -0.0290873 0)
(10.4176 -0.0254289 0)
(10.4483 -0.027237 0)
(10.4661 -0.0221302 0)
(10.4953 -0.0245516 0)
(10.5142 -0.0184971 0)
(10.5427 -0.0201133 0)
(10.5618 -0.0145262 0)
(10.5902 -0.0142115 0)
(10.6092 -0.00907152 0)
(10.6367 -0.00770956 0)
(10.6572 -0.00126322 0)
(10.6817 -4.0713e-05 0)
(10.7053 0.00804698 0)
(10.7261 0.0106761 0)
(10.7519 0.0178401 0)
(10.771 0.0250429 0)
(10.7972 0.0296694 0)
(10.8154 0.041089 0)
(10.8425 0.046695 0)
(10.8584 0.0577456 0)
(10.8881 0.068538 0)
(10.9019 0.0789452 0)
(10.9316 0.0909871 0)
(10.9486 0.109574 0)
(10.9721 0.113872 0)
(10.9989 0.146065 0)
(11.0118 0.146229 0)
(11.0507 0.181416 0)
(11.0547 0.191931 0)
(11.102 0.220773 0)
(11.1024 0.243011 0)
(11.1557 0.273202 0)
(11.1522 0.298972 0)
(11.2156 0.336114 0)
(11.2064 0.366169 0)
(11.2778 0.411726 0)
(11.2711 0.441048 0)
(11.3432 0.507261 0)
(11.3418 0.531265 0)
(11.4208 0.610187 0)
(11.415 0.662093 0)
(11.509 0.710774 0)
(11.498 0.838575 0)
(11.6021 0.837146 0)
(11.5978 1.02855 0)
(11.6919 1.04871 0)
(11.7129 1.21198 0)
(11.7976 1.34412 0)
(11.7971 1.46726 0)
(11.9441 1.6652 0)
(11.8616 1.84329 0)
(12.0392 2.0643 0)
(11.973 2.28825 0)
(12.0439 2.59887 0)
(12.0223 2.84076 0)
(12.0322 3.20629 0)
(11.9254 3.54713 0)
(11.9104 3.89279 0)
(9.99967 -0.00556535 0)
(10.0042 -0.0124715 0)
(10.0097 -0.0222258 0)
(10.0221 -0.0287532 0)
(10.0337 -0.0353754 0)
(10.0521 -0.0404382 0)
(10.0684 -0.0433375 0)
(10.09 -0.0469482 0)
(10.1085 -0.047414 0)
(10.1324 -0.0503128 0)
(10.1506 -0.0494185 0)
(10.177 -0.0526388 0)
(10.1931 -0.0507193 0)
(10.2222 -0.054891 0)
(10.2367 -0.0515689 0)
(10.2684 -0.0563521 0)
(10.2821 -0.051897 0)
(10.3158 -0.0562914 0)
(10.3284 -0.0520348 0)
(10.3639 -0.0546216 0)
(10.3757 -0.0519521 0)
(10.4116 -0.0520121 0)
(10.4245 -0.0507926 0)
(10.4581 -0.0495825 0)
(10.4747 -0.0477019 0)
(10.5041 -0.0473935 0)
(10.5249 -0.043238 0)
(10.551 -0.0437725 0)
(10.5738 -0.0387397 0)
(10.5992 -0.0376033 0)
(10.6214 -0.0337581 0)
(10.6474 -0.03022 0)
(10.6693 -0.0258552 0)
(10.694 -0.0231553 0)
(10.7182 -0.0142471 0)
(10.7392 -0.014961 0)
(10.7665 -0.00127096 0)
(10.7849 -0.00223817 0)
(10.8126 0.0110813 0)
(10.8321 0.0161449 0)
(10.8578 0.024229 0)
(10.8781 0.0379866 0)
(10.9046 0.0417583 0)
(10.9228 0.0607327 0)
(10.952 0.0665041 0)
(10.9695 0.0847415 0)
(10.997 0.0970421 0)
(11.0202 0.114318 0)
(11.0421 0.130445 0)
(11.0717 0.151892 0)
(11.0918 0.169259 0)
(11.1235 0.194619 0)
(11.1452 0.216773 0)
(11.1799 0.245314 0)
(11.2021 0.269326 0)
(11.2397 0.308055 0)
(11.269 0.333684 0)
(11.2996 0.372443 0)
(11.3474 0.423933 0)
(11.3679 0.438716 0)
(11.4279 0.532018 0)
(11.456 0.530455 0)
(11.5093 0.640131 0)
(11.5609 0.671158 0)
(11.5976 0.746126 0)
(11.6913 0.854474 0)
(11.6774 0.899237 0)
(11.8556 1.03755 0)
(11.7778 1.14151 0)
(11.9891 1.2595 0)
(11.9571 1.42138 0)
(12.0841 1.59871 0)
(12.1318 1.7672 0)
(12.2375 2.00864 0)
(12.2233 2.26953 0)
(12.3774 2.51857 0)
(12.3136 2.88152 0)
(12.3825 3.2007 0)
(12.3259 3.61151 0)
(12.2796 4.02002 0)
(9.99993 -0.00742433 0)
(10.0045 -0.0192851 0)
(10.0113 -0.0322416 0)
(10.0246 -0.0425603 0)
(10.0382 -0.0509518 0)
(10.0579 -0.0583494 0)
(10.076 -0.0618868 0)
(10.0984 -0.0666471 0)
(10.118 -0.0674808 0)
(10.142 -0.0706967 0)
(10.1609 -0.0708517 0)
(10.1869 -0.0736237 0)
(10.2038 -0.0737287 0)
(10.2322 -0.0762645 0)
(10.2482 -0.0760317 0)
(10.2787 -0.0777162 0)
(10.2945 -0.07745 0)
(10.3263 -0.0776199 0)
(10.3414 -0.0780089 0)
(10.3751 -0.0764529 0)
(10.3887 -0.0775467 0)
(10.4238 -0.074889 0)
(10.4372 -0.0756697 0)
(10.4714 -0.0734345 0)
(10.4877 -0.0720901 0)
(10.5179 -0.0718268 0)
(10.539 -0.0672436 0)
(10.5648 -0.0687806 0)
(10.5891 -0.0620256 0)
(10.6138 -0.0632815 0)
(10.6369 -0.0564283 0)
(10.664 -0.055809 0)
(10.6842 -0.0489654 0)
(10.7131 -0.0472351 0)
(10.7328 -0.0391019 0)
(10.7603 -0.0364305 0)
(10.7816 -0.0285289 0)
(10.8079 -0.0210784 0)
(10.8284 -0.0175454 0)
(10.8574 -0.00270872 0)
(10.8739 -0.00164022 0)
(10.9059 0.0137618 0)
(10.9228 0.022898 0)
(10.9502 0.030215 0)
(10.9763 0.0497632 0)
(10.994 0.0563267 0)
(11.0277 0.0727473 0)
(11.0459 0.0935526 0)
(11.0734 0.0990708 0)
(11.1037 0.131515 0)
(11.1243 0.139497 0)
(11.1558 0.16665 0)
(11.1887 0.192524 0)
(11.2075 0.206535 0)
(11.2532 0.25245 0)
(11.2772 0.257439 0)
(11.3121 0.315592 0)
(11.3588 0.329376 0)
(11.3831 0.373603 0)
(11.4427 0.4325 0)
(11.4665 0.432098 0)
(11.544 0.550707 0)
(11.5532 0.529548 0)
(11.6633 0.652458 0)
(11.6648 0.686575 0)
(11.7762 0.771002 0)
(11.8226 0.853709 0)
(11.8992 0.964041 0)
(11.981 1.04652 0)
(12.0915 1.19598 0)
(12.1171 1.33656 0)
(12.316 1.48164 0)
(12.3085 1.70985 0)
(12.4804 1.90205 0)
(12.5481 2.18656 0)
(12.6454 2.46562 0)
(12.6796 2.8228 0)
(12.7967 3.20701 0)
(12.7211 3.63724 0)
(12.754 4.10123 0)
(9.99883 -0.00991053 0)
(10.0068 -0.0272223 0)
(10.0125 -0.0446884 0)
(10.0309 -0.0579974 0)
(10.0442 -0.0689616 0)
(10.0689 -0.0770524 0)
(10.0867 -0.0819424 0)
(10.1121 -0.0861049 0)
(10.1317 -0.0884296 0)
(10.1561 -0.0906864 0)
(10.1763 -0.09277 0)
(10.2001 -0.094815 0)
(10.2208 -0.0963278 0)
(10.2444 -0.0987371 0)
(10.2673 -0.0988685 0)
(10.2904 -0.101004 0)
(10.3152 -0.100503 0)
(10.3383 -0.101186 0)
(10.3622 -0.101566 0)
(10.3889 -0.0998045 0)
(10.408 -0.10204 0)
(10.441 -0.0976265 0)
(10.4539 -0.101301 0)
(10.4921 -0.095631 0)
(10.5026 -0.0983522 0)
(10.5406 -0.0940902 0)
(10.5547 -0.0934538 0)
(10.5873 -0.0913147 0)
(10.6072 -0.0882788 0)
(10.6352 -0.0854178 0)
(10.6572 -0.0833182 0)
(10.6857 -0.0771396 0)
(10.7056 -0.0760138 0)
(10.7356 -0.0693184 0)
(10.7557 -0.0635679 0)
(10.7826 -0.0627535 0)
(10.8075 -0.0471059 0)
(10.8298 -0.0534123 0)
(10.8561 -0.0315255 0)
(10.882 -0.0363078 0)
(10.8992 -0.0190756 0)
(10.9379 -0.0124365 0)
(10.9431 -0.00380741 0)
(10.9895 0.0102665 0)
(10.9949 0.0219115 0)
(11.0351 0.0297249 0)
(11.0521 0.0538587 0)
(11.0836 0.0573486 0)
(11.1045 0.082425 0)
(11.1436 0.0966089 0)
(11.1527 0.115064 0)
(11.209 0.136443 0)
(11.2083 0.159033 0)
(11.2748 0.183511 0)
(11.2693 0.200528 0)
(11.3523 0.251219 0)
(11.3323 0.242732 0)
(11.4356 0.322789 0)
(11.4187 0.31256 0)
(11.5087 0.383575 0)
(11.5359 0.412766 0)
(11.5828 0.454104 0)
(11.674 0.517194 0)
(11.6746 0.568647 0)
(11.8177 0.618302 0)
(11.8199 0.71642 0)
(11.9411 0.768748 0)
(12.0194 0.866556 0)
(12.1124 0.982377 0)
(12.1929 1.07103 0)
(12.3663 1.23457 0)
(12.4157 1.37342 0)
(12.5815 1.56956 0)
(12.7325 1.7904 0)
(12.8255 2.04454 0)
(12.976 2.36416 0)
(13.1127 2.73434 0)
(13.175 3.12581 0)
(13.2466 3.65387 0)
(13.2737 4.15371 0)
(9.99905 -0.013448 0)
(10.0081 -0.0378156 0)
(10.018 -0.0602885 0)
(10.0382 -0.0772418 0)
(10.0578 -0.089513 0)
(10.0823 -0.0986792 0)
(10.1068 -0.102887 0)
(10.1285 -0.108059 0)
(10.1547 -0.109203 0)
(10.1729 -0.113719 0)
(10.2 -0.113989 0)
(10.2169 -0.119534 0)
(10.2452 -0.117778 0)
(10.2622 -0.124616 0)
(10.2923 -0.120294 0)
(10.3094 -0.12714 0)
(10.3406 -0.122384 0)
(10.3585 -0.126809 0)
(10.3879 -0.124585 0)
(10.4099 -0.124482 0)
(10.4339 -0.126493 0)
(10.4629 -0.121393 0)
(10.4799 -0.126892 0)
(10.5153 -0.119002 0)
(10.5282 -0.124162 0)
(10.5653 -0.118041 0)
(10.5799 -0.118325 0)
(10.6128 -0.116769 0)
(10.6332 -0.111351 0)
(10.6605 -0.112927 0)
(10.6844 -0.104051 0)
(10.7107 -0.106902 0)
(10.7335 -0.0945749 0)
(10.7614 -0.100386 0)
(10.7836 -0.0819717 0)
(10.8091 -0.0920358 0)
(10.8358 -0.0690415 0)
(10.8568 -0.0775107 0)
(10.8847 -0.0588914 0)
(10.91 -0.0560211 0)
(10.9274 -0.0480093 0)
(10.968 -0.0343303 0)
(10.97 -0.0276071 0)
(11.0221 -0.0193275 0)
(11.0216 0.00516398 0)
(11.0686 -0.00573217 0)
(11.0799 0.0387992 0)
(11.1196 0.0220469 0)
(11.1303 0.0618121 0)
(11.187 0.0658262 0)
(11.1752 0.086461 0)
(11.2547 0.106845 0)
(11.2426 0.130918 0)
(11.3034 0.139752 0)
(11.3349 0.18903 0)
(11.3559 0.178733 0)
(11.4243 0.250168 0)
(11.4338 0.233948 0)
(11.5124 0.306401 0)
(11.5323 0.318886 0)
(11.6025 0.357395 0)
(11.6613 0.416477 0)
(11.7031 0.447285 0)
(11.7916 0.491133 0)
(11.8715 0.584814 0)
(11.8993 0.596952 0)
(12.085 0.704714 0)
(12.0722 0.784466 0)
(12.2662 0.855363 0)
(12.3442 0.970121 0)
(12.494 1.11339 0)
(12.6162 1.21758 0)
(12.8238 1.43694 0)
(12.9498 1.58896 0)
(13.151 1.91862 0)
(13.3553 2.1614 0)
(13.4857 2.57217 0)
(13.7174 3.05282 0)
(13.7548 3.5472 0)
(13.9191 4.24056 0)
(10.0001 -0.0186965 0)
(10.0102 -0.0524343 0)
(10.0277 -0.0802209 0)
(10.051 -0.10092 0)
(10.0793 -0.113732 0)
(10.1041 -0.123173 0)
(10.1349 -0.127246 0)
(10.1537 -0.132274 0)
(10.1845 -0.134927 0)
(10.1983 -0.139293 0)
(10.2303 -0.141585 0)
(10.2423 -0.146742 0)
(10.2764 -0.145586 0)
(10.2882 -0.153201 0)
(10.3243 -0.14689 0)
(10.336 -0.157178 0)
(10.3722 -0.147645 0)
(10.3857 -0.1581 0)
(10.4176 -0.14925 0)
(10.4383 -0.156058 0)
(10.4601 -0.15177 0)
(10.4931 -0.151871 0)
(10.5016 -0.15388 0)
(10.5474 -0.147367 0)
(10.5449 -0.153307 0)
(10.5983 -0.143927 0)
(10.5916 -0.149797 0)
(10.6453 -0.139626 0)
(10.6402 -0.14594 0)
(10.6911 -0.131777 0)
(10.6872 -0.142355 0)
(10.7378 -0.121956 0)
(10.7333 -0.135135 0)
(10.782 -0.114424 0)
(10.7837 -0.12099 0)
(10.8188 -0.109481 0)
(10.8401 -0.102134 0)
(10.8522 -0.101852 0)
(10.8933 -0.0851271 0)
(10.8949 -0.0846947 0)
(10.9323 -0.0745523 0)
(10.9526 -0.0573362 0)
(10.962 -0.0649829 0)
(11.0113 -0.0301083 0)
(11.004 -0.0433632 0)
(11.0523 -0.0117578 0)
(11.0686 -0.00995105 0)
(11.0836 0.00905722 0)
(11.1338 0.018472 0)
(11.1352 0.0446906 0)
(11.184 0.0430899 0)
(11.2034 0.0830628 0)
(11.2439 0.0810371 0)
(11.2667 0.118198 0)
(11.318 0.127144 0)
(11.3469 0.161411 0)
(11.3869 0.177365 0)
(11.4463 0.211065 0)
(11.482 0.233729 0)
(11.5327 0.27686 0)
(11.6187 0.288977 0)
(11.6294 0.356783 0)
(11.7661 0.368313 0)
(11.7699 0.430307 0)
(11.9253 0.476074 0)
(11.9485 0.53215 0)
(12.1163 0.585253 0)
(12.1755 0.681057 0)
(12.3377 0.724923 0)
(12.4459 0.851822 0)
(12.645 0.930591 0)
(12.7832 1.08804 0)
(12.992 1.18328 0)
(13.243 1.45901 0)
(13.4314 1.58394 0)
(13.7452 1.98153 0)
(13.9464 2.26367 0)
(14.2854 2.86085 0)
(14.3799 3.36995 0)
(14.6469 4.19215 0)
(9.99885 -0.0263059 0)
(10.0187 -0.0699866 0)
(10.0417 -0.0988782 0)
(10.0768 -0.118053 0)
(10.108 -0.125288 0)
(10.1404 -0.132772 0)
(10.1685 -0.134374 0)