/*--------------------------------*- C++ -*----------------------------------*\
| =========                 |                                                 |
| \\      /  F ield         | OpenFOAM: The Open Source CFD Toolbox           |
|  \\    /   O peration     | Version:  2306                                  |
|   \\  /    A nd           | Website:  www.openfoam.com                      |
|    \\/     M anipulation  |                                                 |
\*---------------------------------------------------------------------------*/
FoamFile
{
    version     2.0;
    format      ascii;
    arch        "LSB;label=32;scalar=64";
    class       volScalarField;
    location    "0.025";
    object      p;
}
// * * * * * * * * * * * * * * * * * * * * * * * * * * * * * * * * * * * * * //

dimensions      [0 2 -2 0 0 0 0];

internalField   nonuniform List<scalar> 
4400
(
377.247
376.229
375.305
374.639
374.207
373.861
373.616
373.433
373.156
372.885
372.747
372.538
372.132
371.762
371.583
371.443
371.181
370.84
370.524
370.262
370.036
369.837
369.673
369.544
369.44
369.346
369.251
369.15
369.043
368.929
368.81
368.687
368.561
368.434
368.306
368.177
368.05
367.923
367.797
367.672
367.549
367.428
367.309
367.193
367.079
366.969
366.863
366.762
366.666
366.576
366.493
366.418
366.352
366.297
366.254
366.225
366.212
366.218
366.245
366.295
366.373
366.482
366.625
366.808
367.035
367.311
367.642
368.034
368.492
369.024
369.634
370.327
371.11
371.986
372.957
374.025
375.188
376.444
377.786
379.208
375.79
375.447
374.992
374.554
374.183
373.808
373.525
373.361
373.111
372.821
372.704
372.568
372.165
371.717
371.529
371.461
371.237
370.864
370.521
370.276
370.075
369.882
369.711
369.578
369.47
369.37
369.268
369.161
369.049
368.932
368.811
368.687
368.56
368.432
368.304
368.176
368.048
367.921
367.795
367.67
367.547
367.425
367.306
367.189
367.075
366.964
366.857
366.755
366.658
366.566
366.482
366.405
366.338
366.28
366.235
366.203
366.187
366.189
366.212
366.257
366.33
366.432
366.569
366.744
366.962
367.229
367.55
367.931
368.378
368.897
369.494
370.175
370.945
371.808
372.767
373.825
374.98
376.232
377.574
379.001
375.246
375.081
374.8
374.487
374.176
373.8
373.496
373.332
373.079
372.775
372.684
372.612
372.206
371.694
371.492
371.481
371.298
370.915
370.574
370.372
370.213
370.025
369.834
369.677
369.549
369.429
369.307
369.184
369.062
368.939
368.814
368.688
368.56
368.431
368.302
368.174
368.045
367.918
367.791
367.666
367.541
367.419
367.299
367.181
367.065
366.953
366.845
366.74
366.641
366.547
366.459
366.379
366.308
366.246
366.195
366.158
366.135
366.129
366.142
366.178
366.239
366.328
366.45
366.609
366.809
367.055
367.354
367.71
368.131
368.621
369.188
369.838
370.576
371.407
372.335
373.362
374.491
375.719
377.046
378.464
374.832
374.733
374.536
374.309
374.07
373.735
373.443
373.28
373.026
372.72
372.647
372.607
372.21
371.675
371.469
371.493
371.343
370.963
370.616
370.425
370.28
370.092
369.889
369.72
369.584
369.455
369.325
369.196
369.07
368.944
368.816
368.688
368.559
368.429
368.3
368.17
368.042
367.913
367.786
367.659
367.534
367.411
367.289
367.17
367.053
366.939
366.828
366.721
366.618
366.521
366.429
366.344
366.268
366.2
366.142
366.096
366.064
366.048
366.049
366.071
366.116
366.188
366.29
366.426
366.601
366.82
367.088
367.41
367.794
368.246
368.771
369.377
370.07
370.855
371.738
372.722
373.809
375.003
376.297
377.695
374.533
374.466
374.319
374.152
373.971
373.675
373.401
373.247
372.996
372.687
372.614
372.595
372.222
371.687
371.469
371.502
371.373
371.002
370.655
370.469
370.339
370.159
369.954
369.778
369.633
369.496
369.357
369.219
369.086
368.954
368.823
368.691
368.56
368.429
368.298
368.167
368.037
367.908
367.779
367.652
367.526
367.401
367.278
367.156
367.037
366.921
366.807
366.697
366.59
366.489
366.392
366.302
366.218
366.143
366.076
366.021
365.977
365.948
365.934
365.939
365.965
366.015
366.092
366.201
366.345
366.529
366.759
367.04
367.378
367.78
368.253
368.803
369.438
370.167
370.988
371.917
372.951
374.091
375.353
376.711
374.315
374.265
374.147
374.017
373.876
373.613
373.359
373.216
372.97
372.657
372.584
372.582
372.228
371.696
371.467
371.502
371.391
371.034
370.69
370.506
370.381
370.205
369.997
369.814
369.663
369.52
369.375
369.233
369.095
368.96
368.826
368.692
368.559
368.427
368.295
368.163
368.032
367.902
367.772
367.643
367.516
367.389
367.264
367.141
367.019
366.9
366.783
366.669
366.558
366.451
366.349
366.252
366.161
366.077
366
365.933
365.876
365.832
365.801
365.786
365.789
365.814
365.862
365.938
366.046
366.189
366.373
366.604
366.887
367.23
367.637
368.122
368.687
369.339
370.096
370.945
371.914
372.999
374.187
375.52
374.157
374.117
374.016
373.909
373.794
373.555
373.32
373.188
372.946
372.634
372.563
372.568
372.226
371.699
371.469
371.506
371.405
371.057
370.716
370.532
370.41
370.237
370.029
369.843
369.688
369.541
369.393
369.246
369.104
368.966
368.83
368.694
368.559
368.425
368.292
368.159
368.027
367.895
367.764
367.634
367.505
367.376
367.249
367.123
366.999
366.876
366.756
366.637
366.522
366.409
366.301
366.196
366.097
366.002
365.915
365.835
365.763
365.701
365.651
365.614
365.592
365.587
365.603
365.642
365.707
365.804
365.934
366.108
366.327
366.597
366.935
367.331
367.815
368.384
369.037
369.817
370.688
371.69
372.825
374.066
374.045
374.011
373.921
373.828
373.729
373.507
373.286
373.163
372.927
372.618
372.548
372.555
372.22
371.701
371.473
371.51
371.413
371.072
370.735
370.552
370.431
370.26
370.052
369.864
369.706
369.556
369.405
369.255
369.111
368.97
368.832
368.694
368.558
368.422
368.288
368.154
368.02
367.887
367.755
367.623
367.492
367.362
367.233
367.104
366.977
366.851
366.726
366.603
366.482
366.364
366.248
366.136
366.027
365.922
365.822
365.728
365.64
365.559
365.488
365.426
365.376
365.34
365.318
365.316
365.335
365.377
365.451
365.554
365.702
365.895
366.133
366.451
366.819
367.284
367.845
368.487
369.278
370.162
371.203
372.375
373.974
373.943
373.859
373.774
373.685
373.474
373.262
373.146
372.915
372.608
372.539
372.546
372.216
371.703
371.477
371.513
371.417
371.082
370.747
370.566
370.444
370.274
370.067
369.877
369.717
369.565
369.412
369.261
369.114
368.972
368.832
368.693
368.556
368.419
368.283
368.148
368.014
367.879
367.746
367.612
367.479
367.347
367.215
367.084
366.953
366.824
366.695
366.567
366.441
366.316
366.193
366.071
365.953
365.836
365.723
365.614
365.509
365.409
365.314
365.226
365.147
365.074
365.016
364.966
364.934
364.921
364.922
364.961
365.016
365.119
365.269
365.449
365.728
366.049
366.472
367.004
367.627
368.42
369.294
370.388
373.94
373.91
373.828
373.747
373.663
373.457
373.25
373.137
372.908
372.603
372.534
372.543
372.214
371.704
371.479
371.514
371.419
371.086
370.753
370.572
370.45
370.28
370.073
369.883
369.722
369.569
369.415
369.262
369.115
368.972
368.831
368.691
368.552
368.415
368.278
368.142
368.006
367.871
367.736
367.601
367.466
367.331
367.197
367.063
366.929
366.796
366.663
366.53
366.398
366.266
366.135
366.005
365.876
365.748
365.621
365.496
365.373
365.251
365.134
365.018
364.906
364.8
364.694
364.603
364.512
364.434
364.375
364.311
364.297
364.28
364.312
364.393
364.489
364.704
364.937
365.318
365.787
366.345
367.2
368.002
373.94
373.91
373.828
373.747
373.663
373.457
373.25
373.137
372.908
372.603
372.534
372.542
372.214
371.703
371.479
371.514
371.419
371.085
370.753
370.571
370.45
370.279
370.072
369.882
369.721
369.568
369.413
369.26
369.113
368.969
368.827
368.687
368.548
368.41
368.273
368.135
367.999
367.862
367.725
367.589
367.452
367.316
367.179
367.042
366.905
366.767
366.63
366.492
366.354
366.215
366.077
365.937
365.798
365.657
365.517
365.376
365.233
365.093
364.948
364.806
364.662
364.515
364.374
364.218
364.084
363.931
363.789
363.666
363.504
363.418
363.295
363.223
363.205
363.172
363.299
363.398
363.7
364.116
364.551
365.44
373.974
373.943
373.859
373.774
373.685
373.474
373.262
373.146
372.914
372.608
372.538
372.546
372.215
371.702
371.477
371.512
371.416
371.08
370.746
370.564
370.442
370.271
370.064
369.874
369.713
369.561
369.407
369.254
369.107
368.964
368.823
368.682
368.543
368.404
368.266
368.129
367.991
367.853
367.715
367.577
367.439
367.3
367.161
367.021
366.88
366.739
366.597
366.455
366.31
366.165
366.018
365.87
365.72
365.568
365.413
365.255
365.097
364.93
364.767
364.589
364.418
364.234
364.037
363.855
363.624
363.435
363.2
362.962
362.754
362.46
362.27
361.983
361.793
361.612
361.364
361.438
361.288
361.458
361.852
362.119
374.045
374.011
373.921
373.827
373.728
373.507
373.286
373.163
372.926
372.618
372.548
372.555
372.219
371.7
371.472
371.508
371.411
371.07
370.732
370.549
370.428
370.256
370.048
369.859
369.699
369.549
369.396
369.245
369.099
368.957
368.816
368.676
368.537
368.398
368.26
368.122
367.983
367.844
367.705
367.566
367.425
367.285
367.143
367
366.857
366.712
366.566
366.418
366.268
366.116
365.962
365.804
365.645
365.479
365.312
365.138
364.959
364.778
364.579
364.389
364.167
363.958
363.721
363.459
363.222
362.893
362.635
362.281
361.919
361.604
361.103
360.784
360.288
359.862
359.519
358.988
358.834
358.5
358.444
358.684
374.156
374.116
374.016
373.908
373.793
373.554
373.319
373.187
372.945
372.633
372.562
372.567
372.224
371.697
371.467
371.503
371.402
371.054
370.712
370.528
370.405
370.231
370.023
369.835
369.679
369.531
369.381
369.232
369.088
368.948
368.809
368.67
368.531
368.392
368.254
368.115
367.976
367.836
367.696
367.555
367.413
367.27
367.126
366.981
366.834
366.686
366.536
366.383
366.228
366.07
365.908
365.743
365.571
365.397
365.212
365.028
364.828
364.624
364.415
364.171
363.956
363.667
363.419
363.113
362.759
362.465
361.998
361.651
361.139
360.632
360.111
359.383
358.894
358.002
357.361
356.726
355.752
355.323
354.698
354.338
374.314
374.265
374.147
374.017
373.876
373.612
373.358
373.216
372.969
372.656
372.582
372.58
372.226
371.693
371.465
371.499
371.387
371.03
370.685
370.501
370.375
370.198
369.989
369.805
369.652
369.507
369.36
369.215
369.075
368.937
368.799
368.662
368.524
368.386
368.247
368.108
367.968
367.828
367.687
367.544
367.401
367.257
367.111
366.963
366.813
366.663
366.507
366.352
366.19
366.028
365.857
365.684
365.505
365.316
365.126
364.917
364.71
364.483
364.243
364.004
363.709
363.449
363.099
362.782
362.394
361.933
361.556
360.904
360.471
359.739
358.959
358.294
357.22
356.272
355.176
354.058
352.707
351.501
350.555
349.269
374.532
374.465
374.318
374.151
373.97
373.674
373.4
373.245
372.995
372.685
372.612
372.593
372.219
371.684
371.466
371.498
371.369
370.998
370.649
370.463
370.331
370.151
369.945
369.767
369.62
369.481
369.339
369.199
369.062
368.927
368.792
368.655
368.519
368.38
368.242
368.102
367.962
367.821
367.679
367.535
367.391
367.245
367.097
366.947
366.795
366.64
366.483
366.321
366.158
365.985
365.815
365.628
365.446
365.244
365.041
364.829
364.587
364.37
364.08
363.835
363.528
363.185
362.895
362.415
362.064
361.538
360.979
360.421
359.661
359.009
357.899
357.127
355.803
354.333
353.241
351.126
349.367
347.612
345.339
343.584
374.832
374.732
374.535
374.308
374.07
373.734
373.442
373.279
373.024
372.718
372.645
372.605
372.207
371.672
371.465
371.489
371.339
370.958
370.61
370.418
370.272
370.082
369.878
369.708
369.569
369.438
369.305
369.173
369.043
368.913
368.781
368.647
368.511
368.374
368.236
368.097
367.956
367.815
367.672
367.528
367.382
367.234
367.084
366.934
366.778
366.623
366.459
366.3
366.124
365.958
365.769
365.59
365.389
365.184
364.972
364.737
364.499
364.252
363.949
363.7
363.323
363.034
362.614
362.22
361.687
361.213
360.585
359.761
359.323
358.028
357.05
356.197
354.249
352.741
351.16
348.478
345.63
343.174
339.902
336.246
375.245
375.08
374.799
374.486
374.175
373.799
373.495
373.331
373.078
372.773
372.682
372.609
372.203
371.691
371.488
371.477
371.293
370.909
370.567
370.364
370.204
370.015
369.822
369.663
369.533
369.41
369.285
369.159
369.033
368.906
368.776
368.643
368.508
368.371
368.233
368.093
367.952
367.81
367.666
367.521
367.374
367.226
367.075
366.922
366.766
366.606
366.443
366.273
366.104
365.919
365.746
365.535
365.363
365.105
364.942
364.622
364.455
364.108
363.864
363.576
363.128
362.941
362.328
362.044
361.377
360.915
360.294
359.373
358.953
357.134
356.61
355.309
352.747
351.836
349.235
345.505
343.003
338.458
333.073
328.281
375.789
375.446
374.991
374.553
374.182
373.806
373.524
373.36
373.109
372.819
372.702
372.566
372.162
371.713
371.525
371.456
371.231
370.858
370.514
370.267
370.065
369.871
369.699
369.563
369.453
369.35
369.245
369.135
369.019
368.897
368.77
368.639
368.505
368.369
368.23
368.091
367.949
367.807
367.662
367.517
367.369
367.22
367.067
366.914
366.754
366.597
366.426
366.265
366.078
365.909
365.712
365.513
365.331
365.053
364.932
364.517
364.462
363.971
363.811
363.508
362.944
362.899
361.983
361.967
360.76
361.011
359.222
359.181
358.731
355.528
356.821
353.954
351.136
351.214
346.51
343.76
338.968
333.715
325.295
317.183
377.246
376.229
375.304
374.638
374.206
373.86
373.615
373.431
373.154
372.883
372.745
372.535
372.129
371.759
371.579
371.438
371.175
370.834
370.517
370.254
370.026
369.826
369.66
369.529
369.423
369.326
369.228
369.123
369.012
368.893
368.767
368.638
368.504
368.368
368.229
368.089
367.948
367.805
367.66
367.514
367.366
367.217
367.064
366.91
366.75
366.591
366.421
366.257
366.069
365.905
365.686
365.522
365.273
365.086
364.849
364.544
364.41
363.867
363.877
363.105
363.148
362.384
362.209
361.748
360.903
361.053
358.986
359.551
357.917
355.925
357.06
352.696
352.172
349.926
346.387
342.605
338.047
330.552
319.853
305.855
380.699
382.247
383.837
385.456
387.09
388.725
390.346
391.945
393.508
395.016
396.457
397.823
399.096
400.256
401.285
402.17
402.896
403.452
403.818
404.008
380.503
382.067
383.683
385.335
387.006
388.684
390.357
392.001
393.603
395.162
396.641
398.008
399.276
400.452
401.507
402.412
403.151
403.715
404.085
404.278
379.964
381.543
383.179
384.861
386.585
388.313
390.034
391.753
393.414
394.982
396.493
397.989
399.363
400.543
401.578
402.485
403.243
403.827
404.212
404.411
379.188
380.759
382.417
384.13
385.874
387.669
389.455
391.191
392.936
394.616
396.002
397.239
398.595
399.991
401.247
402.297
403.148
403.781
404.188
404.393
378.181
379.759
381.4
383.141
384.943
386.736
388.597
390.432
392.124
393.898
395.715
397.38
398.747
399.774
400.747
401.74
402.67
403.403
403.868
404.096
376.948
378.493
380.164
381.881
383.713
385.606
387.461
389.367
391.239
392.565
393.217
394.115
395.787
397.833
399.636
401.224
402.348
403.036
403.408
403.581
375.471
376.973
378.604
380.392
382.175
384.089
386.163
387.986
389.994
392.659
394.885
395.735
395.524
395.497
396.692
398.611
400.419
401.644
402.274
402.54
373.669
375.193
376.736
378.465
380.432
382.294
384.28
386.484
388.397
389.232
390.041
390.96
390.806
391.293
395.079
399.424
401.563
401.895
401.72
401.612
371.622
372.934
374.596
376.303
377.985
380.148
382.233
384.208
387.102
390.623
392.963
392.111
388.967
388.404
391.528
395.159
397.498
398.622
399.195
399.455
369.139
370.524
371.818
373.606
375.505
377.306
379.445
381.795
383.106
383.703
385.663
387.532
387.632
388.593
391.113
393.777
395.579
396.441
396.863
397.071
366.272
367.325
368.938
370.287
372.04
374.269
376.089
378.259
381.503
383.543
383.664
383.946
384.699
386.163
388.314
390.637
392.48
393.628
394.208
394.431
363.022
363.87
364.935
366.692
368.337
370.113
372.214
373.594
374.634
376.792
379.535
381.682
383.566
384.949
386.108
387.446
388.79
389.907
390.65
391.012
358.853
359.751
360.708
361.783
363.607
365.643
368.09
371.355
373.474
374.369
375.924
377.674
379.405
380.894
382.333
383.747
385.03
386.046
386.738
387.11
354.379
354.442
355.359
356.746
358.126
359.708
360.941
362.076
364.461
368.187
371.656
374.39
376.342
377.635
378.808
380.183
381.443
382.364
382.9
383.168
348.727
348.676
348.439
349.383
351.71
354.71
358.414
359.955
359.879
361.584
364.466
367.613
370.479
372.556
374.288
376.059
377.509
378.423
378.899
379.115
341.963
340.911
341.019
341.287
342.311
344.347
347.008
349.725
353.26
357.853
361.743
364.164
365.971
367.623
369.449
371.408
372.918
373.819
374.333
374.59
333.799
331.038
329.228
330.754
334.197
337.813
339.23
339.843
343.121
348.204
353.099
357.138
359.972
361.948
363.935
366.014
367.584
368.559
369.18
369.512
323.432
318.635
314.503
313.851
317.696
324.074
330.086
334.737
339.033
343.483
347.304
350.885
353.87
356.005
358.035
360.119
361.771
362.916
363.684
364.09
308.279
299.232
295.739
298.183
302.142
306.307
311.451
318.873
327.606
335.3
340.611
344.681
347.91
350.218
352.26
354.258
355.925
357.212
358.099
358.555
283.493
264.066
258.748
269.889
284.454
293.497
298.555
305.619
315.268
323.949
330.331
335.74
340.24
343.571
346.252
348.5
350.272
351.659
352.596
353.06
247.072
229.842
223.556
232.534
250.941
269.117
283.009
294.772
305.584
313.826
320.34
326.408
331.877
336.311
339.9
342.7
344.754
346.259
347.215
347.673
227.609
218.568
204.264
201.921
213.467
233.953
257.638
278.415
294.126
304.439
311.961
318.552
324.466
329.488
333.65
336.889
339.238
340.879
341.884
342.367
205.959
198.868
187.901
177.302
181.727
201.299
231.24
258.85
279.763
293.466
303.176
311.16
317.701
323.07
327.565
331.097
333.672
335.441
336.547
337.098
181.973
169.268
159.258
150.387
156.312
177.76
211.221
242.724
266.648
282.368
294.153
303.743
310.967
316.714
321.545
325.349
328.121
330.029
331.269
331.907
150.882
141.514
124.766
119.85
130.878
157.887
195.58
230.182
255.943
273.107
286.539
297.145
304.689
310.714
315.811
319.83
322.776
324.841
326.218
326.934
131.05
117.52
96.9972
91.4207
105.661
137.698
179.361
217.772
246.365
265.444
280.399
291.574
299.279
305.484
310.678
314.794
317.876
320.084
321.569
322.343
121.337
106.06
80.518
72.5815
88.1486
122.182
166.492
207.56
237.77
258.694
275.112
286.728
294.771
301.136
306.318
310.454
313.612
315.911
317.46
318.266
127.646
110.166
79.6328
70.8633
85.07
118.093
161.578
202.553
232.586
254.313
271.103
282.867
291.284
297.691
302.842
306.96
310.116
312.424
313.987
314.793
151.438
132.198
100.196
89.6373
99.8024
128.069
167.542
205.32
233.869
254.192
269.652
280.894
289.172
295.496
300.489
304.43
307.459
309.688
311.199
311.976
186.215
167.93
141.548
126.34
132.281
154.813
187.225
218.286
242.077
258.971
271.952
281.648
288.942
294.669
299.226
302.828
305.612
307.677
309.094
309.816
227.372
212.26
189.738
176.46
178.666
194.167
217.459
238.953
255.102
267.344
277.136
284.567
290.399
295.136
298.983
302.08
304.509
306.339
307.612
308.264
265.487
255.866
239.177
227.08
225.586
234.728
248.403
260.315
269.353
277.051
283.446
288.564
292.864
296.472
299.505
302.013
304.022
305.565
306.665
307.235
292.776
287.069
276.726
266.426
263.173
266.078
272.102
277.234
281.747
285.916
289.528
292.815
295.717
298.27
300.515
302.43
304.005
305.24
306.149
306.626
312.077
308.01
300.689
292.049
287.251
285.885
287.024
288.727
290.787
292.751
294.73
296.703
298.507
300.216
301.78
303.159
304.322
305.254
305.961
306.337
320.166
317.941
313.411
306.558
301.172
298.282
296.641
296.626
297.112
297.818
298.861
299.913
300.98
302.063
303.09
304.028
304.838
305.497
306.007
306.28
324.346
322.463
319.041
313.906
308.687
305.951
303.243
302.272
301.844
301.778
302.107
302.515
303.079
303.694
304.319
304.915
305.441
305.871
306.205
306.384
325.332
323.847
320.941
317.252
312.605
310.316
307.649
306.214
305.461
304.921
304.721
304.688
304.863
305.121
305.439
305.767
306.066
306.309
306.495
306.591
324.741
323.645
321.186
318.49
314.676
312.647
310.379
308.807
308.023
307.263
306.781
306.481
306.37
306.365
306.447
306.566
306.686
306.776
306.839
306.866
323.492
322.726
320.743
318.697
315.79
313.904
312.033
310.473
309.7
308.876
308.295
307.868
307.587
307.414
307.329
307.293
307.277
307.249
307.213
307.184
322.077
321.552
320.003
318.449
316.335
314.617
313.086
311.602
310.816
309.981
309.371
308.893
308.528
308.261
308.071
307.931
307.818
307.705
307.595
307.524
320.736
320.352
319.159
317.996
316.475
315
313.753
312.402
311.612
310.788
310.165
309.66
309.253
308.933
308.679
308.475
308.299
308.13
307.97
307.872
319.558
319.243
318.34
317.452
316.337
315.121
314.1
312.927
312.167
311.386
310.768
310.252
309.822
309.471
309.179
308.935
308.72
308.518
308.33
308.216
318.559
318.277
317.6
316.886
316.044
315.051
314.199
313.212
312.506
311.796
311.207
310.7
310.266
309.901
309.59
309.322
309.087
308.867
308.666
308.546
317.716
317.451
316.942
316.335
315.684
314.87
314.148
313.325
312.681
312.049
311.501
311.021
310.601
310.237
309.921
309.646
309.401
309.178
308.974
308.855
316.986
316.736
316.351
315.816
315.302
314.631
314.014
313.331
312.747
312.189
311.685
311.24
310.842
310.492
310.182
309.909
309.667
309.448
309.251
309.136
316.333
316.103
315.802
315.335
314.915
314.36
313.832
313.265
312.741
312.25
311.792
311.382
311.01
310.679
310.383
310.12
309.887
309.678
309.493
309.385
315.733
315.526
315.289
314.888
314.535
314.074
313.619
313.147
312.683
312.253
311.839
311.466
311.122
310.812
310.533
310.285
310.064
309.869
309.699
309.601
315.177
314.995
314.809
314.473
314.17
313.787
313.393
312.996
312.588
312.211
311.84
311.501
311.186
310.9
310.641
310.408
310.203
310.024
309.869
309.781
314.664
314.508
314.365
314.087
313.826
313.506
313.165
312.827
312.468
312.136
311.805
311.5
311.213
310.949
310.71
310.496
310.306
310.142
310.004
309.925
314.188
314.071
313.956
313.729
313.504
313.235
312.939
312.648
312.333
312.04
311.744
311.469
311.208
310.967
310.747
310.55
310.377
310.228
310.104
310.034
313.764
313.675
313.583
313.399
313.205
312.977
312.72
312.467
312.19
311.929
311.664
311.415
311.177
310.957
310.756
310.575
310.416
310.282
310.171
310.11
313.389
313.321
313.246
313.096
312.928
312.732
312.508
312.285
312.041
311.807
311.569
311.343
311.126
310.925
310.74
310.574
310.429
310.307
310.209
310.154
313.062
313.01
312.945
312.82
312.673
312.504
312.307
312.108
311.89
311.678
311.463
311.256
311.058
310.872
310.701
310.549
310.414
310.304
310.214
310.167
312.778
312.737
312.678
312.572
312.442
312.291
312.116
311.936
311.739
311.546
311.349
311.158
310.975
310.802
310.644
310.501
310.379
310.275
310.196
310.152
312.531
312.498
312.443
312.349
312.231
312.095
311.936
311.771
311.591
311.411
311.228
311.05
310.878
310.717
310.567
310.434
310.315
310.224
310.144
310.109
312.318
312.288
312.235
312.15
312.041
311.915
311.768
311.613
311.445
311.276
311.103
310.935
310.771
310.617
310.476
310.346
310.239
310.145
310.08
310.044
312.134
312.107
312.054
311.974
311.87
311.75
311.611
311.463
311.303
311.14
310.974
310.811
310.654
310.504
310.365
310.244
310.128
310.051
309.975
309.944
311.977
311.95
311.897
311.819
311.718
311.601
311.465
311.32
311.164
311.005
310.842
310.682
310.526
310.38
310.245
310.119
310.022
309.92
309.868
309.838
311.845
311.818
311.763
311.684
311.583
311.466
311.332
311.187
311.031
310.871
310.708
310.546
310.391
310.242
310.103
309.987
309.865
309.789
309.716
309.678
311.737
311.709
311.651
311.57
311.467
311.347
311.209
311.061
310.902
310.739
310.571
310.407
310.243
310.095
309.955
309.819
309.732
309.6
309.559
309.54
311.653
311.623
311.561
311.475
311.368
311.242
311.099
310.944
310.779
310.607
310.434
310.258
310.093
309.928
309.785
309.655
309.527
309.454
309.375
309.309
311.594
311.561
311.495
311.403
311.288
311.153
311.002
310.836
310.661
310.478
310.292
310.11
309.924
309.761
309.596
309.454
309.352
309.198
309.133
309.135
311.561
311.525
311.452
311.352
311.227
311.082
310.918
310.739
310.548
310.351
310.151
309.948
309.76
309.559
309.403
309.243
309.1
309.032
308.958
308.857
311.556
311.517
311.436
311.325
311.188
311.028
310.848
310.652
310.443
310.226
310.006
309.788
309.564
309.375
309.162
309.01
308.871
308.689
308.585
308.593
311.581
311.537
311.447
311.324
311.172
310.994
310.794
310.577
310.344
310.105
309.858
309.614
309.382
309.132
308.95
308.732
308.568
308.497
308.417
308.334
311.639
311.59
311.489
311.35
311.18
310.981
310.758
310.513
310.256
309.981
309.713
309.433
309.164
308.924
308.65
308.483
308.299
308.068
307.949
307.882
311.734
311.679
311.564
311.408
311.216
310.993
310.741
310.468
310.171
309.873
309.549
309.255
308.941
308.645
308.406
308.115
307.912
307.794
307.624
307.645
311.869
311.807
311.677
311.5
311.283
311.03
310.746
310.434
310.107
309.75
309.415
309.032
308.718
308.374
308.051
307.824
307.586
307.34
307.303
307.07
312.05
311.979
311.831
311.631
311.385
311.097
310.775
310.423
310.043
309.66
309.229
308.863
308.419
308.087
307.728
307.38
307.123
306.896
306.572
306.664
312.281
312.201
312.032
311.805
311.524
311.199
310.83
310.43
310.003
309.543
309.108
308.589
308.204
307.702
307.338
306.968
306.61
306.412
306.307
306.153
312.569
312.477
312.286
312.026
311.709
311.335
310.921
310.457
309.973
309.461
308.908
308.429
307.819
307.412
306.883
306.5
306.193
305.811
305.637
305.569
312.919
312.815
312.598
312.303
311.94
311.52
311.035
310.525
309.947
309.372
308.771
308.117
307.596
306.917
306.473
305.907
305.398
305.077
304.663
304.454
313.339
313.222
312.975
312.639
312.229
311.744
311.211
310.592
309.982
309.271
308.602
307.914
307.157
306.577
305.837
305.355
304.857
304.451
304.557
304.511
313.837
313.704
313.424
313.044
312.576
312.035
311.404
310.747
309.965
309.25
308.396
307.607
306.836
305.983
305.392
304.622
304.145
303.637
303.257
302.213
314.42
314.271
313.953
313.523
312.995
312.374
311.682
310.877
310.085
309.125
308.286
307.322
306.387
305.565
304.549
303.919
302.988
302.413
301.604
302.052
315.096
314.928
314.571
314.084
313.49
312.787
311.989
311.124
310.12
309.169
308.039
307.005
305.933
304.779
303.934
302.848
302.405
301.812
302.079
301.426
315.874
315.687
315.283
314.74
314.06
313.283
312.369
311.374
310.299
309.087
307.931
306.656
305.42
304.29
302.959
302.167
300.922
300.099
298.1
298.39
316.761
316.552
316.103
315.485
314.744
313.83
312.857
311.685
310.472
309.164
307.719
306.345
304.828
303.384
302.012
300.545
299.334
298.423
297.631
297.974
317.762
317.533
317.029
316.355
315.493
314.538
313.337
312.139
310.687
309.167
307.628
305.813
304.3
302.407
300.934
299.357
298.249
297.36
296.818
296.378
318.885
318.633
318.081
317.317
316.404
315.252
314.057
312.541
311.024
309.339
307.371
305.682
303.396
301.771
299.576
298.075
296.061
294.215
292.62
290.807
320.132
319.859
319.249
318.422
317.374
316.194
314.713
313.194
311.387
309.373
307.458
304.902
302.946
300.189
298.073
295.363
293.42
291.852
290.057
291.598
321.501
321.21
320.546
319.64
318.513
317.156
315.639
313.826
311.853
309.726
307.16
304.832
301.855
299.227
296.351
294.017
291.444
289.456
288.857
284.66
322.993
322.681
321.977
320.977
319.779
318.291
316.601
314.659
312.42
309.96
307.232
304.266
301.043
297.943
294.381
291.049
287.948
285.137
280.461
282.256
324.595
324.281
323.508
322.49
321.116
319.618
317.714
315.567
313.222
310.274
307.451
303.783
300.386
296
292.139
287.838
283.56
279.981
278.244
274.348
326.302
325.972
325.201
324.041
322.731
320.943
319.021
316.743
313.866
311.121
307.272
303.715
299.127
294.733
289.583
284.368
279.342
275.458
267.763
268.97
328.085
327.779
326.943
325.835
324.283
322.622
320.438
317.851
315.194
311.445
307.979
303.358
298.467
292.826
286.669
280.218
273.239
266.352
261.269
254.945
329.935
329.636
328.841
327.613
326.184
324.242
322.053
319.449
316.081
312.723
308.243
303.3
297.752
291.175
283.808
275.43
266.153
256.745
244.488
242.745
331.817
331.558
330.772
329.598
328.025
326.192
323.785
321.003
317.7
313.624
308.943
303.622
296.942
289.364
280.53
270.031
258.149
245.222
229.683
213.857
333.705
333.512
332.753
331.644
330.105
328.113
325.845
322.723
319.362
314.963
310.007
303.771
296.645
288.094
277.504
265.172
249.371
230.206
202.409
176.503
335.586
335.429
334.828
333.672
332.238
330.363
327.709
324.953
320.907
316.619
311.071
304.569
296.562
286.966
274.568
259.509
239.158
213.784
177.218
99.061
337.407
337.4
336.778
335.919
334.418
332.538
330.185
326.793
323.268
318.355
312.303
305.601
296.785
286.124
272.168
254.655
230.177
194.232
154.334
13.8619
339.2
339.223
338.86
337.94
336.742
334.939
332.279
329.431
325.015
320.092
314.084
306.521
298.089
286.256
270.957
248.016
229.532
173.408
131.988
22.965
340.895
341.069
340.828
340.161
339.072
337.217
334.752
331.228
327.879
321.392
316.528
306.747
301.749
282.164
277.338
239.054
225.568
173.347
121.126
61.9648
342.524
342.605
342.951
341.318
342.492
338.514
337.891
332.323
330.995
320.729
320.625
300.63
310.6
276.076
273.799
240.496
214.904
183.308
130.023
91.3495
344.077
343.9
345.285
342.397
345.687
338.694
341.547
330.064
337.849
314.342
325.323
293.983
301.317
276.34
259.787
242.632
210.981
189.269
145.757
105.896
345.372
344.964
346.983
341.532
350.942
335.558
343.305
327.332
336.651
313.867
313.561
297.19
283.985
273.841
255.531
245.148
214.907
191.749
157.272
118.726
346.886
345.893
347.437
341.631
348.679
338.65
338.82
329.063
326.141
315.072
305.33
299.355
284.42
277.665
258.77
247.63
222.59
195.39
164.431
130.133
347.888
347.841
347.766
348.862
338.443
338.524
337.436
333.106
322.649
317.965
306.709
304.881
288.217
286.796
266.579
249.838
228.56
201.043
170.064
137.828
348.147
349.673
346.797
355.462
337.78
341.424
335.869
342.813
326.53
329.769
319.986
317.519
295.778
289.853
270.789
250.199
230.274
205.933
175.945
143.396
348.698
350.901
347.248
357.686
343.131
360.251
341.512
352.341
333.358
340.372
323.759
328.549
304.559
287.231
270.741
250.53
231.148
209.874
181.52
147.811
-181.492
-213.77
-212.573
-175.948
-217.027
-256.963
-304.626
-350.277
-392.407
-418.147
-418.561
-390.373
-331.76
-249.042
-175.572
-99.6474
-29.6014
18.2564
49.4821
65.1946
70.094
68.4913
63.6623
57.7481
51.9237
46.7073
42.268
38.5914
35.5847
33.1412
31.1832
29.616
28.2865
27.0782
25.8588
24.6261
23.4076
22.3083
21.368
20.5664
20.0775
19.7558
19.5847
19.4967
19.4326
19.2943
19.044
18.6879
18.2245
17.7069
17.0804
16.439
15.7952
15.1598
14.5451
13.9371
13.3484
12.7679
12.1944
11.63
11.0647
10.5035
9.94108
9.37677
8.81445
8.24832
7.68191
7.11556
6.54674
5.97866
5.40993
4.84026
4.27128
3.7017
3.13192
2.56259
1.99293
1.4233
0.853989
0.284686
-119.459
-188.526
-175.684
-197.365