/*--------------------------------*- C++ -*----------------------------------*\
| =========                 |                                                 |
| \\      /  F ield         | OpenFOAM: The Open Source CFD Toolbox           |
|  \\    /   O peration     | Version:  2306                                  |
|   \\  /    A nd           | Website:  www.openfoam.com                      |
|    \\/     M anipulation  |                                                 |
\*---------------------------------------------------------------------------*/
FoamFile
{
    version     2.0;
    format      ascii;
    arch        "LSB;label=32;scalar=64";
    class       surfaceScalarField;
    location    "0.025";
    object      phi;
}
// * * * * * * * * * * * * * * * * * * * * * * * * * * * * * * * * * * * * * //

dimensions      [0 3 -1 0 0 0 0];

oriented        oriented;

internalField   nonuniform List<scalar> 
8520
(
0.00992816
7.18443e-05
0.00979015
0.00013801
0.0096311
0.000159044
0.00947055
0.000160553
0.0093132
0.000157351
0.00915533
0.00015787
0.00899004
0.000165292
0.00882028
0.000169753
0.00865612
0.00016416
0.00849193
0.000164189
0.00832143
0.000170509
0.00815503
0.000166394
0.00800036
0.00015467
0.0078471
0.00015326
0.00768826
0.000158839
0.00753299
0.000155273
0.00738581
0.000147175
0.00724413
0.000141688
0.00710932
0.000134805
0.00699178
0.000117539
0.00690064
9.11423e-05
0.00683673
6.39099e-05
0.00679559
4.11394e-05
0.00677195
2.36444e-05
0.0067609
1.10507e-05
0.00675787
3.02919e-06
0.00675898
-1.11226e-06
0.00676175
-2.77387e-06
0.00676476
-3.0064e-06
0.00676733
-2.56899e-06
0.00676925
-1.92156e-06
0.00677052
-1.273e-06
0.00677124
-7.15672e-07
0.00677151
-2.72725e-07
0.00677143
8.17442e-08
0.00677107
3.64623e-07
0.00677046
6.05311e-07
0.00676963
8.26422e-07
0.00676859
1.04369e-06
0.00676732
1.26961e-06
0.00676581
1.51419e-06
0.00676402
1.78607e-06
0.00676193
2.09352e-06
0.00675948
2.4447e-06
0.00675663
2.84797e-06
0.00675332
3.31249e-06
0.00674947
3.8488e-06
0.006745
4.469e-06
0.00673982
5.18668e-06
0.0067338
6.0172e-06
0.00672682
6.97807e-06
0.00671873
8.08945e-06
0.00670936
9.37459e-06
0.0066985
1.08601e-05
0.00668592
1.25761e-05
0.00667137
1.45565e-05
0.00665453
1.684e-05
0.00663505
1.94701e-05
0.00661256
2.24959e-05
0.00658659
2.59721e-05
0.00655663
2.99588e-05
0.00652211
3.45216e-05
0.00648237
3.97321e-05
0.00643671
4.56662e-05
0.0063843
5.24049e-05
0.00632427
6.00293e-05
0.00625565
6.86215e-05
0.00617739
7.82608e-05
0.00608838
8.90131e-05
0.00598744
0.000100943
0.00587336
0.00011408
0.00574492
0.000128437
0.00560092
0.000143998
0.00544026
0.000160659
0.00526194
0.000178323
0.00506518
0.000196759
0.00484954
0.000215642
0.00461488
0.00023466
0.00436173
0.000253144
0.000270537
0.0040912
0.0100356
3.62067e-05
0.0100796
9.40206e-05
0.0101102
0.000128421
0.0101267
0.000144134
0.0101358
0.000148187
0.0101447
0.000149037
0.0101535
0.000156419
0.0101585
0.000164794
0.0101576
0.000165029
0.0101551
0.00016672
0.01015
0.000175571
0.0101398
0.000176673
0.0101267
0.000167743
0.0101143
0.000165651
0.0101015
0.000171593
0.0100865
0.000170323
0.0100731
0.000160517
0.0100626
0.000152201
0.0100523
0.000145141
0.0100397
0.000130099
0.0100257
0.000105204
0.0100122
7.7339e-05
0.0100008
5.25537e-05
0.00999194
3.25369e-05
0.00998564
1.73519e-05
0.00998158
7.08627e-06
0.00997923
1.24241e-06
0.00997822
-1.76334e-06
0.00997784
-2.63261e-06
0.00997775
-2.48227e-06
0.00997773
-1.89816e-06
0.00997765
-1.18966e-06
0.00997745
-5.2119e-07
0.00997713
4.92979e-08
0.00997668
5.31577e-07
0.0099761
9.4449e-07
0.00997539
1.31891e-06
0.00997453
1.68149e-06
0.00997352
2.05367e-06
0.00997234
2.45328e-06
0.00997096
2.89562e-06
0.00996935
3.39467e-06
0.00996748
3.96436e-06
0.0099653
4.619e-06
0.00996278
5.37375e-06
0.00995985
6.24537e-06
0.00995644
7.2532e-06
0.00995249
8.41964e-06
0.00994791
9.7702e-06
0.00994259
1.13339e-05
0.00993642
1.31436e-05
0.00992928
1.52377e-05
0.00992099
1.76598e-05
0.00991139
2.04604e-05
0.00990027
2.36968e-05
0.00988739
2.74337e-05
0.00987249
3.17451e-05
0.00985524
3.67138e-05
0.00983531
4.24347e-05
0.00981226
4.90127e-05
0.00978566
5.65649e-05
0.00975496
6.52201e-05
0.00971957
7.51174e-05
0.00967883
8.64108e-05
0.00963198
9.92583e-05
0.00957817
0.000113832
0.0095165
0.0001303
0.00944593
0.000148828
0.00936535
0.000169588
0.0092736
0.000192696
0.00916938
0.000218299
0.00905138
0.00024644
0.00891825
0.000277126
0.00876853
0.000310375
0.00860097
0.000345883
0.00841417
0.000383566
0.00820686
0.000422948
0.00797829
0.000463234
0.00772725
0.000504181
0.000544244
0.00745355
0.0100141
2.21107e-05
0.0100439
6.42183e-05
0.0100774
9.4968e-05
0.0101068
0.000114714
0.0101303
0.000124624
0.010151
0.000128402
0.0101739
0.000133511
0.0101991
0.000139597
0.0102224
0.00014173
0.0102445
0.000144576
0.0102682
0.000151913
0.01029
0.000154833
0.0103085
0.000149286
0.0103284
0.000145737
0.0103512
0.000148775
0.0103728
0.000148684
0.0103922
0.000141156
0.0104118
0.000132646
0.0104313
0.000125622
0.0104466
0.000114764
0.0104545
9.73196e-05
0.0104549
7.69341e-05
0.0104495
5.79866e-05
0.01044
4.19817e-05
0.0104284
2.89349e-05
0.0104166
1.89233e-05
0.0104059
1.19012e-05
0.0103969
7.33277e-06
0.0103897
4.53539e-06
0.0103843
2.91323e-06
0.0103804
2.03671e-06
0.0103775
1.62801e-06
0.0103755
1.50247e-06
0.010374
1.5462e-06
0.0103728
1.69955e-06
0.0103719
1.93096e-06
0.010371
2.22721e-06
0.01037
2.58536e-06
0.0103691
3.00786e-06
0.010368
3.50085e-06
0.0103669
4.07354e-06
0.0103655
4.73786e-06
0.010364
5.50814e-06
0.0103622
6.40087e-06
0.0103601
7.43509e-06
0.0103578
8.63297e-06
0.010355
1.00205e-05
0.0103518
1.16281e-05
0.0103481
1.34902e-05
0.0103437
1.56468e-05
0.0103387
1.81435e-05
0.0103329
2.10329e-05
0.0103262
2.43757e-05
0.0103185
2.82414e-05
0.0103094
3.27094e-05
0.010299
3.78695e-05
0.0102869
4.38248e-05
0.0102729
5.0691e-05
0.0102568
5.85996e-05
0.0102381
6.76995e-05
0.0102165
7.8152e-05
0.0101916
9.01426e-05
0.0101628
0.000103868
0.0101297
0.000119542
0.0100916
0.000137409
0.0100477
0.000157691
0.00999733
0.000180666
0.00993958
0.00020657
0.00987355
0.000235626
0.0097981
0.000268142
0.00971224
0.000304156
0.00961471
0.000343972
0.00950425
0.000387591
0.0093798
0.000434817
0.00923962
0.000486069
0.00908285
0.000540334
0.00890807
0.000597723
0.00871331
0.000658
0.00849909
0.000718395
0.000780552
0.00826278
0.0100069
1.52462e-05
0.0100266
4.44861e-05
0.0100515
7.0057e-05
0.0100765
8.96787e-05
0.0100998
0.000101362
0.010121
0.000107215
0.0101427
0.000111834
0.0101659
0.000116366
0.0101886
0.000118993
0.0102115
0.000121731
0.0102367
0.000126708
0.0102619
0.000129575
0.0102842
0.000127068
0.0103058
0.00012413
0.0103296
0.000124969
0.0103538
0.000124493
0.0103765
0.000118376
0.0103991
0.000110116
0.0104216
0.000103108
0.0104409
9.55014e-05
0.0104534
8.47496e-05
0.0104586
7.17135e-05
0.0104579
5.86872e-05
0.0104532
4.67702e-05
0.010446
3.60957e-05
0.010438
2.68834e-05
0.0104305
1.94681e-05
0.010424
1.38376e-05
0.0104188
9.74369e-06
0.0104148
6.88913e-06
0.0104118
4.98542e-06
0.0104097
3.78773e-06
0.0104081
3.09752e-06
0.0104069
2.76435e-06
0.0104059
2.6841e-06
0.010405
2.78762e-06
0.0104042
3.03182e-06
0.0104034
3.39336e-06
0.0104025
3.86242e-06
0.0104016
4.4376e-06
0.0104006
5.12427e-06
0.0103994
5.93308e-06
0.010398
6.87896e-06
0.0103964
7.98051e-06
0.0103946
9.26048e-06
0.0103925
1.07459e-05
0.01039
1.24686e-05
0.0103872
1.44656e-05
0.0103839
1.67796e-05
0.0103801
1.94603e-05
0.0103757
2.25641e-05
0.0103705
2.61575e-05
0.0103646
3.03153e-05
0.0103577
3.51247e-05
0.0103497
4.06841e-05
0.0103405
4.71063e-05
0.0103298
5.45212e-05
0.0103174
6.30725e-05
0.0103031
7.29297e-05
0.0102865
8.42732e-05
0.0102674
9.73182e-05
0.0102452
0.000112289
0.0102196
0.000129444
0.0101901
0.000149069
0.0101561
0.000171437
0.0101168
0.000196925
0.0100717
0.000225773
0.0100199
0.000258414
0.00996037
0.000295149
0.00989237
0.000336142
0.00981445
0.000382083
0.00972591
0.000432508
0.00962532
0.000488188
0.00951108
0.00054905
0.00938321
0.000613942
0.00923826
0.000685286
0.00907654
0.000759444
0.00889764
0.000836892
0.0086956
0.00092044
0.000999686
0.00847647
0.0100043
1.09234e-05
0.0100166
3.22115e-05
0.0100351
5.15962e-05
0.0100562
6.85039e-05
0.0100775
8.00776e-05
0.0100979
8.68537e-05
0.0101184
9.13101e-05
0.0101397
9.51165e-05
0.010161
9.76545e-05
0.0101831
9.96155e-05
0.0102069
0.000102866
0.0102308
0.000105744
0.0102525
0.000105322
0.0102736
0.000103018
0.0102966
0.000101979
0.0103203
0.000100794
0.0103423
9.63838e-05
0.0103626
8.98428e-05
0.0103818
8.38944e-05
0.0103989
7.84329e-05
0.010412
7.16424e-05
0.0104206
6.31393e-05
0.0104252
5.40024e-05
0.0104269
4.50856e-05
0.0104264
3.66262e-05
0.0104244
2.88402e-05
0.0104218
2.20854e-05
0.0104191
1.65719e-05
0.0104165
1.22834e-05
0.0104144
9.08425e-06
0.0104125
6.79925e-06
0.0104111
5.25079e-06
0.0104099
4.27372e-06
0.0104089
3.72739e-06
0.0104081
3.50321e-06
0.0104074
3.52308e-06
0.0104067
3.73434e-06
0.010406
4.1047e-06
0.0104052
4.61726e-06
0.0104044
5.26601e-06
0.0104035
6.05372e-06
0.0104024
6.99008e-06
0.0104012
8.09099e-06
0.0103998
9.37709e-06
0.0103982
1.08746e-05
0.0103963
1.26143e-05
0.0103941
1.46335e-05
0.0103916
1.69753e-05
0.0103887
1.96895e-05
0.0103853
2.28349e-05
0.0103814
2.64776e-05
0.0103769
3.06964e-05
0.0103716
3.55785e-05
0.0103655
4.12271e-05
0.0103585
4.77594e-05
0.0103503
5.53066e-05
0.0103407
6.4027e-05
0.0103297
7.4087e-05
0.010317
8.56887e-05
0.0103022
9.90597e-05
0.0102851
0.000114427
0.0102652
0.000132119
0.0102423
0.000152377
0.0102158
0.000175603
0.010185
0.000202172
0.0101496
0.000232333
0.0101086
0.00026685
0.0100613
0.000305643
0.0100069
0.000349598
0.00994388
0.000399148
0.00987231
0.000453656
0.00978916
0.000515649
0.00969494
0.000582409
0.00958813
0.000655863
0.00946429
0.000737779
0.00932851
0.000821073
0.00917187
0.000916083
0.00899471
0.00101405
0.00880634
0.00110881
0.00122243
0.0085836
0.010003
7.89323e-06
0.0100119
2.33673e-05
0.0100256
3.78317e-05
0.0100431
5.09934e-05
0.0100623
6.08828e-05
0.0100818
6.74477e-05
0.0101013
7.17944e-05
0.0101213
7.50363e-05
0.0101419
7.71259e-05
0.0101629
7.85703e-05
0.0101851
8.07204e-05
0.0102077
8.31203e-05
0.0102294
8.35917e-05
0.0102505
8.19533e-05
0.0102721
8.03312e-05
0.010294
7.89208e-05
0.0103145
7.58519e-05
0.0103334
7.10172e-05
0.010351
6.62068e-05
0.0103674
6.2116e-05
0.0103813
5.77275e-05
0.0103922
5.22654e-05
0.0104001
4.60417e-05
0.0104056
3.96045e-05
0.010409
3.31995e-05
0.0104108
2.70166e-05
0.0104116
2.13711e-05
0.0104116
1.65384e-05
0.0104113
1.26234e-05
0.0104107
9.59682e-06
0.0104102
7.36535e-06
0.0104096
5.80983e-06
0.0104091
4.80391e-06
0.0104086
4.22994e-06
0.0104081
3.99076e-06
0.0104076
4.01288e-06
0.0104071
4.24505e-06
0.0104065
4.65479e-06
0.0104059
5.22478e-06
0.0104053
5.94904e-06
0.0104045
6.83099e-06
0.0104036
7.88119e-06
0.0104026
9.11769e-06
0.0104014
1.05632e-05
0.0104
1.22476e-05
0.0103984
1.4205e-05
0.0103966
1.64781e-05
0.0103944
1.91144e-05
0.0103919
2.21714e-05
0.0103891
2.57148e-05
0.0103857
2.98192e-05
0.0103818
3.45753e-05
0.0103773
4.00782e-05
0.0103721
4.64518e-05
0.0103661
5.38188e-05
0.010359
6.23433e-05
0.0103509
7.21882e-05
0.0103414
8.35597e-05
0.0103304
9.66878e-05
0.0103176
0.000111803
0.0103028
0.000129265
0.0102857
0.000149271
0.0102657
0.000172379
0.0102425
0.000198772
0.0102156
0.000229024
0.0101842
0.00026379
0.0101482
0.000302838
0.0101057
0.00034815
0.0100569
0.000398395
0.0100006
0.000455403
0.0099336
0.000520684
0.00985959
0.000589667
0.00977046
0.000671537
0.00966895
0.000757373
0.00955761
0.000849118
0.00941862
0.000960063
0.00927339
0.00106131
0.00910664
0.00118081
0.00889994
0.00131551
0.00141953
0.00870284
0.0100024
5.53221e-06
0.0100093
1.6396e-05
0.0100204
2.67238e-05
0.0100353
3.61766e-05
0.0100523
4.37944e-05
0.0100705
4.93092e-05
0.0100893
5.30184e-05
0.0101087
5.55648e-05
0.0101286
5.72802e-05
0.0101487
5.846e-05
0.0101696
5.97587e-05
0.0101914
6.13814e-05
0.0102129
6.21201e-05
0.0102336
6.12347e-05
0.0102542
5.97212e-05
0.0102748
5.82743e-05
0.0102946
5.61148e-05
0.0103128
5.28151e-05
0.0103297
4.93245e-05
0.0103453
4.64277e-05
0.0103594
4.36526e-05
0.0103714
4.02487e-05
0.0103813
3.61401e-05
0.0103893
3.16562e-05
0.0103954
2.70374e-05
0.0104
2.24527e-05
0.0104032
1.81431e-05
0.0104054
1.43524e-05
0.0104068
1.12137e-05
0.0104077
8.7463e-06
0.0104081
6.90485e-06
0.0104083
5.61388e-06
0.0104084
4.78553e-06
0.0104083
4.33291e-06
0.0104081
4.18123e-06
0.0104078
4.27293e-06
0.0104075
4.56755e-06
0.0104071
5.03932e-06
0.0104067
5.67553e-06
0.0104061
6.47348e-06
0.0104055
7.43983e-06
0.0104048
8.58715e-06
0.010404
9.93667e-06
0.010403
1.15127e-05
0.0104019
1.33498e-05
0.0104007
1.54835e-05
0.0103992
1.79625e-05
0.0103975
2.08373e-05
0.0103955
2.41719e-05
0.0103931
2.80388e-05
0.0103904
3.2517e-05
0.0103873
3.77117e-05
0.0103837
4.37197e-05
0.0103794
5.0684e-05
0.0103745
5.87414e-05
0.0103688
6.80526e-05
0.0103621
7.88489e-05
0.0103544
9.12733e-05
0.0103454
0.000105687
0.0103349
0.000122283
0.0103228
0.00014138
0.0103085
0.000163598
0.0102921
0.00018874
0.0102727
0.000218255
0.0102501
0.000251584
0.0102241
0.000289767
0.0101923
0.000334612
0.0101575
0.00038297
0.0101142
0.000441756
0.0100642
0.000505366
0.0100091
0.000575774
0.0099357
0.000663075
0.00986169
0.000745541
0.0097685
0.000850565
0.00965244
0.000965181
0.00954408
0.00106841
0.00938646
0.00121894
0.00921839
0.00134888
0.009057
0.0014769
0.00166807
0.00880846
0.010002
3.5366e-06
0.0100079
1.04653e-05
0.0100175
1.71308e-05
0.0100305
2.32016e-05
0.0100459
2.83514e-05
0.010063
3.22221e-05
0.0100812
3.48749e-05
0.0101
3.67071e-05
0.0101193
3.80122e-05
0.0101389
3.8811e-05
0.0101592
3.94573e-05
0.0101802
4.0414e-05
0.0102012
4.1137e-05
0.0102216
4.07834e-05
0.0102417
3.96552e-05
0.0102615
3.84743e-05
0.0102805
3.70946e-05
0.0102982
3.51016e-05
0.0103147
3.28764e-05
0.0103301
3.10089e-05
0.0103444
2.93533e-05
0.0103573
2.73776e-05
0.0103685
2.48974e-05
0.0103781
2.20851e-05
0.010386
1.91233e-05
0.0103923
1.61357e-05
0.0103972
1.32805e-05
0.0104008
1.07312e-05
0.0104034
8.59926e-06
0.0104053
6.91817e-06
0.0104065
5.67184e-06
0.0104073
4.81932e-06
0.0104078
4.3079e-06
0.010408
4.08289e-06
0.0104081
4.096e-06
0.0104081
4.31014e-06
0.0104079
4.70036e-06
0.0104077
5.25186e-06
0.0104074
5.96009e-06
0.0104071
6.82783e-06
0.0104066
7.86699e-06
0.0104061
9.09249e-06
0.0104055
1.05302e-05
0.0104049
1.22047e-05
0.010404
1.41572e-05
0.0104031
1.64208e-05
0.010402
1.9055e-05
0.0104008
2.21043e-05
0.0103993
2.56488e-05
0.0103976
2.97526e-05
0.0103956
3.45141e-05
0.0103932
4.0034e-05
0.0103905
4.64202e-05
0.0103874
5.38397e-05
0.0103837
6.23911e-05
0.0103794
7.23554e-05
0.0103745
8.37857e-05
0.0103686
9.71399e-05
0.0103619
0.000112425
0.010354
0.000130198
0.0103446
0.000150782
0.0103341
0.000174121
0.0103208
0.000202036
0.0103064
0.00023257
0.0102884
0.000269607
0.0102671
0.00031104
0.0102445
0.000357263
0.0102119
0.000415603
0.0101809
0.000472683
0.0101386
0.000547655
0.0100848
0.00062957
0.0100383
0.000709596
0.00995489
0.000828981
0.00987835
0.000927101
0.00979297
0.00105056
0.0096489
0.00121248
0.00954215
0.00132569
0.009381
0.00151004
0.00916852
0.00168937
0.00183412
0.00900247
0.0100018
1.72874e-06
0.0100072
5.1078e-06
0.0100159
8.38666e-06
0.0100278
1.13533e-05
0.0100422
1.39259e-05
0.0100585
1.59156e-05
0.010076
1.73256e-05
0.0100944
1.83026e-05
0.0101135
1.89741e-05
0.0101329
1.93462e-05
0.0101528
1.96294e-05
0.0101731
2.01212e-05
0.0101936
2.05742e-05
0.010214
2.04596e-05
0.0102338
1.98494e-05
0.010253
1.91987e-05
0.0102716
1.85379e-05
0.0102891
1.76217e-05
0.0103054
1.6561e-05
0.0103207
1.56652e-05
0.0103352
1.49147e-05
0.0103485
1.40396e-05
0.0103605
1.29088e-05
0.010371
1.15926e-05
0.0103799
1.01892e-05
0.0103873
8.76536e-06
0.0103932
7.40026e-06
0.0103977
6.18568e-06
0.0104011
5.18607e-06
0.0104036
4.42476e-06
0.0104054
3.89921e-06
0.0104066
3.59476e-06
0.0104074
3.49017e-06
0.010408
3.56227e-06
0.0104083
3.79039e-06
0.0104084
4.16022e-06
0.0104085
4.66515e-06
0.0104084
5.30399e-06
0.0104083
6.08293e-06
0.0104081
7.0111e-06
0.0104079
8.10747e-06
0.0104076
9.38828e-06
0.0104072
1.0887e-05
0.0104068
1.26242e-05
0.0104063
1.46531e-05
0.0104057
1.6996e-05
0.010405
1.97315e-05
0.0104043
2.2888e-05
0.0104033
2.65659e-05
0.0104023
3.08238e-05
0.010401
3.57545e-05
0.0103996
4.15033e-05
0.0103979
4.81051e-05
0.0103959
5.58454e-05
0.0103935
6.47206e-05
0.0103908
7.5045e-05
0.0103875
8.70888e-05
0.010384
0.00010071
0.0103793
0.000117084
0.0103743
0.000135187
0.0103682
0.000156857
0.0103604
0.000181936
0.0103532
0.000209252
0.0103409
0.00024486
0.0103307
0.000279805
0.0103158
0.000326002
0.0102949
0.000378104
0.0102814
0.00042914
0.0102455
0.000508571
0.01022
0.000573116
0.0101876
0.000662036
0.0101199
0.000777315
0.0100902
0.00085867
0.0100048
0.00101245
0.00990705
0.00114832
0.00984209
0.00127743
0.00967875
0.00148903
0.00954831
0.00164048
0.00938314
0.00185454
0.00207085
0.00914641
0.0100017
3.3787e-09
0.0100068
9.70996e-09
0.0100152
1.62346e-08
0.0100265
2.35771e-08
0.0100404
3.09921e-08
0.0100563
3.85996e-08
0.0100736
4.69821e-08
0.0100918
5.70709e-08
0.0101107
6.86119e-08
0.01013
8.07062e-08
0.0101495
9.39938e-08
0.0101695
1.09085e-07
0.01019
1.26574e-07
0.0102103
1.4736e-07
0.01023
1.71654e-07
0.010249
1.99232e-07
0.0102673
2.29786e-07
0.0102846
2.64263e-07
0.0103009
3.04771e-07
0.0103162
3.5319e-07
0.0103307
4.10871e-07
0.0103443
4.7912e-07
0.0103566
5.59042e-07
0.0103676
6.51566e-07
0.010377
7.57973e-07
0.0103849
8.80095e-07
0.0103913
1.02036e-06
0.0103963
1.18131e-06
0.0104001
1.36733e-06
0.0104029
1.58463e-06
0.010405
1.83732e-06
0.0104064
2.13128e-06
0.0104075
2.47319e-06
0.0104082
2.87166e-06
0.0104086
3.33425e-06
0.0104089
3.87041e-06
0.0104091
4.49314e-06
0.0104092
5.21554e-06
0.0104092
6.05574e-06
0.0104092
7.02883e-06
0.0104091
8.16243e-06
0.010409
9.47191e-06
0.0104089
1.10021e-05
0.0104088
1.27627e-05
0.0104086
1.48288e-05
0.0104084
1.71939e-05
0.0104082
1.99822e-05
0.0104079
2.31608e-05
0.0104075
2.69193e-05
0.0104072
3.11975e-05
0.0104067
3.62538e-05
0.0104061
4.20211e-05
0.0104054
4.88057e-05
0.0104047
5.6599e-05
0.0104038
6.56451e-05
0.0104025
7.62628e-05
0.0104015
8.81537e-05
0.0103994
0.000102819
0.0103982
0.000118278
0.0103951
0.000138305
0.0103927
0.000159259
0.01039
0.000184566
0.0103832
0.000216085
0.0103829
0.000245156
0.0103708
0.000291876
0.0103662
0.000330615
0.0103599
0.000384381
0.0103341
0.000454935
0.0103383
0.000504457
0.0103015
0.000609918
0.010274
0.00068947
0.0102655
0.000785831
0.0101849
0.000939251
0.0101584
0.00103898
0.0100857
0.001221
0.00998162
0.00138153
0.00989782
0.00157283
0.00972499
0.00181332
0.00961502
0.00196451
0.00230494
0.00938092
0.0100017
-1.72205e-06
0.0100068
-5.08861e-06
0.0100152
-8.35459e-06
0.0100265
-1.13067e-05
0.0100404
-1.38647e-05
0.0100563
-1.58392e-05
0.0100736
-1.72326e-05
0.0100918
-1.81899e-05
0.0101107
-1.88385e-05
0.01013
-1.91864e-05
0.0101495
-1.94432e-05
0.0101696
-1.99056e-05
0.01019
-2.03242e-05
0.0102103
-2.01682e-05
0.01023
-1.95094e-05
0.010249
-1.8804e-05
0.0102673
-1.80832e-05
0.0102847
-1.70992e-05
0.0103009
-1.59585e-05
0.0103163
-1.49668e-05
0.0103308
-1.41019e-05
0.0103443
-1.30914e-05
0.0103567
-1.18027e-05
0.0103677
-1.03036e-05
0.0103771
-8.68956e-06
0.010385
-7.0248e-06
0.0103914
-5.38306e-06
0.0103964
-3.8483e-06
0.0104003
-2.47918e-06
0.0104032
-1.2898e-06
0.0104053
-2.69698e-07
0.0104068
6.18093e-07
0.0104079
1.401e-06
0.0104086
2.11795e-06
0.0104091
2.80505e-06
0.0104095
3.49561e-06
0.0104098
4.22253e-06
0.01041
5.0122e-06
0.0104102
5.89551e-06
0.0104103
6.89088e-06
0.0104104
8.03871e-06
0.0104105
9.34501e-06
0.0104107
1.08787e-05
0.0104108
1.26155e-05
0.010411
1.46866e-05
0.0104111
1.7004e-05
0.0104113
1.98075e-05
0.0104116
2.29144e-05
0.0104118
2.66878e-05
0.0104121
3.09032e-05
0.0104124
3.59083e-05
0.0104127
4.17331e-05
0.0104133
4.82582e-05
0.0104135
5.63681e-05
0.0104142
6.49188e-05
0.0104146
7.58627e-05
0.010415
8.77719e-05
0.0104164
0.000101403
0.0104154
0.000119305
0.0104184
0.000135323
0.0104167
0.00016093
0.0104179
0.000183425
0.0104217
0.000212191
0.0104132
0.000253669
0.0104258
0.000279267
0.010414
0.000342498
0.0104125
0.0003858
0.0104272
0.000440297
0.0103896
0.00054202
0.0104131
0.000586481
0.0103905
0.000712065
0.0103534
0.000822861
0.0103627
0.000930005
0.0102942
0.00110746
0.010271
0.0012442
0.0101736
0.00147897
0.0100955
0.00165092
0.0100298
0.00187898
0.00976089
0.00223342
0.00239928
0.00966656
0.0100018
-3.53013e-06
0.0100072
-1.04468e-05
0.0100159
-1.70999e-05
0.0100278
-2.31565e-05
0.0100422
-2.82922e-05
0.0100585
-3.21482e-05
0.0100761
-3.47852e-05
0.0100945
-3.65984e-05
0.0101135
-3.78814e-05
0.010133
-3.86563e-05
0.0101528
-3.92768e-05
0.0101731
-4.02053e-05
0.0101937
-4.08956e-05
0.010214
-4.05021e-05
0.0102338
-3.93264e-05
0.0102531
-3.80922e-05
0.0102717
-3.66543e-05
0.0102892
-3.45958e-05
0.0103055
-3.22932e-05
0.0103209
-3.03331e-05
0.0103353
-2.85672e-05
0.0103487
-2.6461e-05
0.0103607
-2.38279e-05
0.0103713
-2.08387e-05
0.0103803
-1.76736e-05
0.0103877
-1.44532e-05
0.0103936
-1.13302e-05
0.0103983
-8.4715e-06
0.0104018
-5.98265e-06
0.0104044
-3.88853e-06
0.0104063
-2.16182e-06
0.0104076
-7.54116e-07
0.0104086
4.18292e-07
0.0104093
1.40758e-06
0.0104098
2.28079e-06
0.0104103
3.09191e-06
0.0104106
3.89306e-06
0.0104109
4.72195e-06
0.0104111
5.62178e-06
0.0104114
6.6116e-06
0.0104117
7.746e-06
0.010412
9.01632e-06
0.0104124
1.05208e-05
0.0104128
1.21907e-05
0.0104133
1.42265e-05
0.0104139
1.64356e-05
0.0104145
1.92094e-05
0.0104152
2.21417e-05
0.010416
2.592e-05
0.0104171
2.98274e-05
0.010418
3.49731e-05
0.0104196
4.01711e-05
0.0104206
4.72282e-05
0.0104229
5.40894e-05
0.0104241
6.37242e-05
0.0104268
7.30841e-05
0.0104293
8.52873e-05
0.0104309
9.98758e-05
0.0104374
0.000112754
0.0104354
0.000137358
0.0104462
0.000150099
0.0104459
0.000183717
0.0104495
0.000208592
0.0104673
0.000235933
0.010452
0.000294509
0.0104817
0.000312819
0.0104774
0.000390127
0.0104732
0.000444496
0.0105115
0.000503642
0.010481
0.000617019
0.0105091
0.00068393
0.0104939
0.000838101
0.0105017
0.000922236
0.0104833
0.00112583
0.0104167
0.00131081
0.0104623
0.00143334
0.0103172
0.00179607
0.010221
0.00197513
0.0101542
0.00230025
0.00261707
0.0099364
0.010002
-5.52622e-06
0.0100079
-1.63786e-05
0.0100175
-2.66946e-05
0.0100305
-3.61345e-05
0.0100459
-4.37387e-05
0.010063
-4.92393e-05
0.0100812
-5.29337e-05
0.0101001
-5.54625e-05
0.0101193
-5.71572e-05
0.010139
-5.83143e-05
0.0101593
-5.95883e-05
0.0101803
-6.1184e-05
0.0102013
-6.18917e-05
0.0102217
-6.09689e-05
0.0102418
-5.94105e-05
0.0102616
-5.79133e-05
0.0102807
-5.5699e-05
0.0102984
-5.23371e-05
0.0103149
-4.87731e-05
0.0103304
-4.57888e-05
0.0103447
-4.29096e-05
0.0103576
-3.9383e-05
0.0103689
-3.51307e-05
0.0103786
-3.04803e-05
0.0103866
-2.56702e-05
0.010393
-2.08657e-05
0.010398
-1.63041e-05
0.0104017
-1.22218e-05
0.0104045
-8.74523e-06
0.0104065
-5.88795e-06
0.0104079
-3.59698e-06
0.0104089
-1.77961e-06
0.0104097
-3.31097e-07
0.0104102
8.47403e-07
0.0104107
1.83624e-06
0.0104111
2.71131e-06
0.0104114
3.54178e-06
0.0104118
4.37073e-06
0.0104121
5.25531e-06
0.0104125
6.20429e-06
0.010413
7.3011e-06
0.0104135
8.48849e-06
0.0104141
9.95338e-06
0.0104148
1.14718e-05
0.0104155
1.35039e-05
0.0104165
1.54304e-05
0.0104174
1.83022e-05
0.0104188
2.07312e-05
0.01042
2.4757e-05
0.0104219
2.79424e-05
0.0104236
3.32882e-05
0.0104257
3.79992e-05
0.0104287
4.43276e-05
0.0104305
5.22027e-05
0.0104355
5.87314e-05
0.0104371
7.14694e-05
0.0104434
7.90328e-05
0.0104482
9.50417e-05
0.0104506
0.000110385
0.0104655
0.000122471
0.0104601
0.000155455
0.0104823
0.000161592
0.010485
0.000205872
0.010489
0.000231945
0.0105262
0.000257287
0.0105063
0.000332706
0.0105502
0.000346266
0.0105598
0.000434884
0.010564
0.000499446
0.0106109
0.000570099
0.0106001
0.000694705
0.0106599
0.000778349
0.0106234
0.000958728
0.0106682
0.00108104
0.0106942
0.00128481
0.0106084
0.00151914
0.0106283
0.00177615
0.0105444
0.00205901
0.0104717
0.00237293
0.00281458
0.0102742
0.0100024
-7.8878e-06
0.0100093
-2.33513e-05
0.0100204
-3.78049e-05
0.0100353
-5.09551e-05
0.0100524
-6.08317e-05
0.0100705
-6.73837e-05
0.0100893
-7.17168e-05
0.0101088
-7.49423e-05
0.0101286
-7.70131e-05
0.0101487
-7.84368e-05
0.0101697
-8.05641e-05
0.0101915
-8.29389e-05
0.010213
-8.33812e-05
0.0102337
-8.17085e-05
0.0102543
-8.00454e-05
0.010275
-7.85887e-05
0.0102948
-7.54689e-05
0.010313
-7.05767e-05
0.0103299
-6.5699e-05
0.0103457
-6.15281e-05
0.0103598
-5.7044e-05
0.0103719
-5.14696e-05
0.0103819
-4.51147e-05
0.0103899
-3.85256e-05
0.0103962
-3.19455e-05
0.0104009
-2.55614e-05
0.0104043
-1.9685e-05
0.0104067
-1.45838e-05
0.0104083
-1.03582e-05
0.0104094
-6.97315e-06
0.0104101
-4.32329e-06
0.0104106
-2.28713e-06
0.010411
-7.33782e-07
0.0104113
5.2166e-07
0.0104116
1.53272e-06
0.0104119
2.40002e-06
0.0104123
3.2023e-06
0.0104127
3.98434e-06
0.0104131
4.81435e-06
0.0104136
5.68793e-06
0.0104142
6.71224e-06
0.0104149
7.7882e-06
0.0104157
9.16607e-06
0.0104166
1.05222e-05
0.0104177
1.24499e-05
0.010419
1.41554e-05
0.0104204
1.68723e-05
0.0104221
1.90512e-05
0.010424
2.27928e-05
0.0104263
2.57079e-05
0.0104288
3.07407e-05
0.0104322
3.46251e-05
0.0104347
4.18151e-05
0.0104409
4.6021e-05
0.0104418
5.78425e-05
0.0104526
6.06064e-05
0.0104523
7.93817e-05
0.0104646
8.27304e-05
0.0104725
0.000102443
0.0104733
0.000121748
0.0105035
0.000125243
0.0104888
0.000176283
0.0105291
0.000165612
0.0105322
0.000228812
0.0105456
0.000243859
0.0105882
0.000290136
0.0105878
0.00034668
0.0106414
0.000381277
0.0106378
0.000503021
0.0107221
0.00048576
0.0107171
0.000699703
0.0107554
0.000740103
0.0108598
0.000854341
0.0108166
0.00112426
0.0109031
0.0011983
0.0108968
0.00152545
0.0109405
0.00173239
0.0108966
0.00210289
0.0107934
0.00247612
0.0028974
0.0107106
0.010003
-1.09186e-05
0.0100119
-3.21975e-05
0.0100256
-5.15725e-05
0.0100432
-6.847e-05
0.0100624
-8.00325e-05
0.0100818
-8.67972e-05
0.0101013
-9.12416e-05
0.0101214
-9.50333e-05
0.0101419
-9.75542e-05
0.010163
-9.94967e-05
0.0101852
-0.000102727
0.0102078
-0.000105582
0.0102296
-0.000105134
0.0102506
-0.000102799
0.0102723
-0.000101724
0.0102942
-0.000100497
0.0103148
-9.60418e-05
0.0103337
-8.94493e-05
0.0103514
-8.3441e-05
0.0103678
-7.79082e-05
0.0103818
-7.10333e-05
0.0103927
-6.24313e-05
0.0104008
-5.3178e-05
0.0104064
-4.41273e-05
0.01041
-3.55139e-05
0.010412
-2.75509e-05
0.0104129
-2.05926e-05
0.0104131
-1.48369e-05
0.010413
-1.02697e-05
0.0104128
-6.75587e-06
0.0104126
-4.10385e-06
0.0104124
-2.12606e-06
0.0104124
-6.41814e-07
0.0104124
4.91112e-07
0.0104125
1.40573e-06
0.0104127
2.1733e-06
0.0104131
2.88321e-06
0.0104135
3.569e-06
0.010414
4.30944e-06
0.0104146
5.06563e-06
0.0104153
6.0051e-06
0.0104162
6.8985e-06
0.0104171
8.23968e-06
0.0104184
9.23297e-06
0.0104195
1.13298e-05
0.0104215
1.21953e-05
0.0104227
1.57017e-05
0.0104258
1.59231e-05
0.0104267
2.18612e-05
0.0104317
2.07676e-05
0.0104323
3.01167e-05
0.0104391
2.78334e-05
0.0104408
4.00757e-05
0.0104474
3.94803e-05
0.0104543
5.09489e-05
0.0104569
5.79708e-05
0.0104719
6.43977e-05
0.0104728
8.18271e-05
0.0104883
8.69577e-05
0.0105036
0.000106426
0.010502
0.00012679
0.0105456
0.000132711
0.0105292
0.000182058
0.0105845
0.000173468
0.0105868
0.000241573
0.0106201
0.000256853
0.0106723
0.000294501
0.0106649
0.00038858
0.0107797
0.000388286
0.0107512
0.000514194
0.0108636
0.000587313
0.0109063
0.000697396
0.0109843
0.000776377
0.0110356
0.00107296
0.0111183
0.00111564
0.0112396
0.00140415
0.0112125
0.00175948
0.0112865
0.00202892
0.0112572
0.00250539
0.002901
0.0112536
0.0100043
-1.52423e-05
0.0100166
-4.44743e-05
0.0100351
-7.00369e-05
0.0100562
-8.96502e-05
0.0100775
-0.000101324
0.0100979
-0.000107167
0.0101184
-0.000111776
0.0101397
-0.000116295
0.0101611
-0.000118907
0.0101832
-0.00012163
0.0102071
-0.00012659
0.0102309
-0.000129437
0.0102527
-0.000126908
0.0102738
-0.000123942
0.0102968
-0.00012475
0.0103206
-0.000124238
0.0103426
-0.000118082
0.010363
-0.000109777
0.0103822
-0.000102718
0.0103994
-9.50506e-05
0.0104126
-8.42276e-05
0.0104213
-7.11092e-05
0.0104261
-5.79838e-05
0.0104279
-4.5955e-05
0.0104275
-3.51467e-05
0.0104258
-2.57881e-05
0.0104234
-1.82065e-05
0.0104209
-1.236e-05
0.0104186
-8.02437e-06
0.0104168
-4.89752e-06
0.0104154
-2.68244e-06
0.0104144
-1.12913e-06
0.0104138
-4.93326e-08
0.0104134
8.40826e-07
0.0104133
1.50247e-06
0.0104134
2.07179e-06
0.0104137
2.61482e-06
0.0104141
3.14803e-06
0.0104147
3.75585e-06
0.0104154
4.36165e-06
0.0104162
5.17869e-06
0.0104172
5.87968e-06
0.0104184
7.102e-06
0.0104198
7.82346e-06
0.0104213
9.77343e-06
0.0104232
1.03463e-05
0.0104255
1.34059e-05
0.0104275
1.38778e-05
0.0104315
1.78944e-05
0.0104328
1.94997e-05
0.0104403
2.26119e-05
0.0104393
2.87558e-05
0.0104518
2.75877e-05
0.0104498
4.14819e-05
0.0104638
3.69788e-05
0.0104692
5.25633e-05
0.0104739
5.97346e-05
0.0104988
5.68812e-05
0.0104888
9.69373e-05
0.0105289
6.63594e-05
0.0105248
0.000130873
0.0105526
0.000104917
0.0105824
0.00015231
0.010585
0.000170844
0.0106555
0.000171084
0.010633
0.000279282
0.010751
0.000176496
0.0107169
0.000422759
0.0108266
0.00027858
0.0109003
0.000440441
0.0108895
0.000598117
0.0111096
0.000477271
0.0110737
0.000812341
0.0112628
0.000883807
0.0113729
0.00100557
0.0114837
0.00129333
0.0115638
0.00167943
0.0117723
0.00182035
0.011778
0.00249976
0.00297564
0.0117033
0.0100069
-2.21077e-05
0.0100266
-6.42089e-05
0.0100515
-9.49522e-05
0.0100766
-0.000114691
0.0100998
-0.000124594
0.010121
-0.000128365
0.0101427
-0.000133465
0.010166
-0.00013954
0.0101887
-0.000141662
0.0102116
-0.000144495
0.0102368
-0.000151818
0.0102621
-0.000154721
0.0102843
-0.000149156
0.010306
-0.000145585
0.0103298
-0.000148596
0.0103541
-0.000148477
0.0103769
-0.000140916
0.0103995
-0.00013237
0.0104221
-0.000125305
0.0104414
-0.000114398
0.0104541
-9.68987e-05
0.0104594
-7.6448e-05
0.0104589
-5.74257e-05
0.0104543
-4.1332e-05
0.0104473
-2.81776e-05
0.0104395
-1.80456e-05
0.0104322
-1.09027e-05
0.010426
-6.14142e-06
0.0104212
-3.15974e-06
0.0104176
-1.31189e-06
0.010415
-1.48436e-07
0.0104134
4.96639e-07
0.0104124
9.61552e-07
0.0104119
1.33902e-06
0.0104117
1.65923e-06
0.0104118
1.96937e-06
0.0104122
2.30813e-06
0.0104126
2.66992e-06