/*--------------------------------*- C++ -*----------------------------------*\
| =========                 |                                                 |
| \\      /  F ield         | OpenFOAM: The Open Source CFD Toolbox           |
|  \\    /   O peration     | Version:  2306                                  |
|   \\  /    A nd           | Website:  www.openfoam.com                      |
|    \\/     M anipulation  |                                                 |
\*---------------------------------------------------------------------------*/
FoamFile
{
    version     2.0;
    format      ascii;
    arch        "LSB;label=32;scalar=64";
    class       volVectorField;
    location    "0.025";
    object      U;
}
// * * * * * * * * * * * * * * * * * * * * * * * * * * * * * * * * * * * * * //

dimensions      [0 1 -1 0 0 0 0];

internalField   nonuniform List<vector> 
4400
(
(9.90423 0.045288 0)
(9.80347 0.0988075 0)
(9.70217 0.120075 0)
(9.57392 0.124882 0)
(9.41097 0.123052 0)
(9.25966 0.121299 0)
(9.09278 0.126123 0)
(8.89729 0.129882 0)
(8.73734 0.123898 0)
(8.58952 0.123346 0)
(8.39583 0.134064 0)
(8.20987 0.131235 0)
(8.08011 0.11419 0)
(7.94938 0.109828 0)
(7.77437 0.118377 0)
(7.59528 0.120276 0)
(7.44828 0.111783 0)
(7.31606 0.102082 0)
(7.1784 0.0901174 0)
(7.04605 0.0703384 0)
(6.93888 0.0460817 0)
(6.86281 0.0251006 0)
(6.8124 0.010818 0)
(6.78111 0.00220928 0)
(6.76436 -0.00242931 0)
(6.75798 -0.00423146 0)
(6.75767 -0.00429238 0)
(6.76006 -0.00360184 0)
(6.76315 -0.00269286 0)
(6.76604 -0.00185071 0)
(6.76832 -0.001177 0)
(6.76993 -0.000675152 0)
(6.77092 -0.000315988 0)
(6.7714 -6.21203e-05 0)
(6.77148 0.000119744 0)
(6.77124 0.000262735 0)
(6.77075 0.00038827 0)
(6.77002 0.00050708 0)
(6.76908 0.000627275 0)
(6.76792 0.000755281 0)
(6.76652 0.000896198 0)
(6.76486 0.00105447 0)
(6.76291 0.00123442 0)
(6.76063 0.00144053 0)
(6.75797 0.00167758 0)
(6.75487 0.00195098 0)
(6.75127 0.00226697 0)
(6.7471 0.00263267 0)
(6.74225 0.00305607 0)
(6.73662 0.00354616 0)
(6.73009 0.00411331 0)
(6.72253 0.00476951 0)
(6.71376 0.0055286 0)
(6.7036 0.0064063 0)
(6.69184 0.00742037 0)
(6.67823 0.00859084 0)
(6.66248 0.0099405 0)
(6.64428 0.0114952 0)
(6.62324 0.0132839 0)
(6.59896 0.0153387 0)
(6.57094 0.0176946 0)
(6.53867 0.0203903 0)
(6.50152 0.0234669 0)
(6.45881 0.0269691 0)
(6.4098 0.0309419 0)
(6.35364 0.0354321 0)
(6.28942 0.0404845 0)
(6.21614 0.0461386 0)
(6.13274 0.052434 0)
(6.03808 0.0593883 0)
(5.93097 0.0670201 0)
(5.81022 0.0753172 0)
(5.6746 0.0842338 0)
(5.52298 0.0937298 0)
(5.35429 0.103649 0)
(5.16761 0.113864 0)
(4.96231 0.124151 0)
(4.73802 0.134106 0)
(4.49488 0.143499 0)
(4.23358 0.151712 0)
(10.0025 0.0609185 0)
(10.0287 0.137183 0)
(10.0725 0.172483 0)
(10.1106 0.184357 0)
(10.1261 0.183816 0)
(10.1556 0.181797 0)
(10.1728 0.189433 0)
(10.1557 0.197299 0)
(10.1572 0.194008 0)
(10.1725 0.194061 0)
(10.1474 0.204909 0)
(10.114 0.205044 0)
(10.1289 0.191129 0)
(10.1506 0.186788 0)
(10.1241 0.193452 0)
(10.0785 0.192388 0)
(10.0621 0.181858 0)
(10.0687 0.175044 0)
(10.0666 0.171098 0)
(10.0496 0.157428 0)
(10.0312 0.130635 0)
(10.018 0.0984468 0)
(10.0074 0.0683856 0)
(9.99711 0.0431797 0)
(9.98856 0.0235418 0)
(9.98302 0.00992823 0)
(9.97993 0.00181563 0)
(9.9784 -0.00208024 0)
(9.97778 -0.00338122 0)
(9.97762 -0.00336061 0)
(9.97762 -0.00274406 0)
(9.97761 -0.00193977 0)
(9.9775 -0.00116642 0)
(9.97725 -0.000508563 0)
(9.97687 2.27599e-05 0)
(9.97635 0.000455598 0)
(9.9757 0.000824558 0)
(9.97491 0.00115844 0)
(9.97397 0.00148135 0)
(9.97287 0.00181288 0)
(9.97158 0.00216867 0)
(9.97007 0.00256197 0)
(9.96832 0.00300523 0)
(9.96628 0.00351079 0)
(9.96392 0.00409105 0)
(9.96117 0.00475924 0)
(9.95798 0.00553039 0)
(9.95427 0.00642192 0)
(9.94997 0.00745358 0)
(9.94499 0.00864761 0)
(9.93921 0.0100292 0)
(9.93251 0.0116276 0)
(9.92474 0.013476 0)
(9.91574 0.015613 0)
(9.90532 0.0180823 0)
(9.89325 0.0209333 0)
(9.87928 0.0242218 0)
(9.86313 0.0280114 0)
(9.84445 0.0323734 0)
(9.82288 0.0373882 0)
(9.79797 0.0431437 0)
(9.76923 0.0497372 0)
(9.73612 0.0572751 0)
(9.698 0.0658687 0)
(9.65416 0.0756433 0)
(9.60384 0.0867183 0)
(9.54616 0.099223 0)
(9.48015 0.113286 0)
(9.40478 0.129 0)
(9.3189 0.1465 0)
(9.22132 0.165819 0)
(9.11073 0.187015 0)
(8.98583 0.210122 0)
(8.84522 0.234939 0)
(8.6875 0.261528 0)
(8.51142 0.289471 0)
(8.31554 0.318374 0)
(8.0988 0.348145 0)
(7.86034 0.377372 0)
(7.59903 0.405863 0)
(10.0024 0.0264759 0)
(10.0133 0.0697801 0)
(10.0458 0.099535 0)
(10.0804 0.116886 0)
(10.1012 0.124919 0)
(10.1453 0.128397 0)
(10.1825 0.134718 0)
(10.1851 0.141262 0)
(10.2107 0.142738 0)
(10.2552 0.146798 0)
(10.2541 0.155695 0)
(10.2415 0.157348 0)
(10.2871 0.149955 0)
(10.3516 0.147813 0)
(10.3637 0.153881 0)
(10.3464 0.154823 0)
(10.3598 0.146941 0)
(10.4023 0.138245 0)
(10.4346 0.130002 0)
(10.445 0.115163 0)
(10.4489 0.0919357 0)
(10.4541 0.0664438 0)
(10.4548 0.044403 0)
(10.4473 0.0272588 0)
(10.435 0.0146041 0)
(10.4222 0.00612062 0)
(10.4107 0.00128748 0)
(10.401 -0.00084251 0)
(10.3928 -0.00144011 0)
(10.3865 -0.00132271 0)
(10.3819 -0.000897862 0)
(10.3786 -0.000376248 0)
(10.3763 0.000131612 0)
(10.3746 0.000586169 0)
(10.3733 0.000991568 0)
(10.3723 0.0013666 0)
(10.3713 0.00173269 0)
(10.3704 0.00211055 0)
(10.3695 0.00251761 0)
(10.3685 0.00296912 0)
(10.3674 0.00347932 0)
(10.3661 0.00406234 0)
(10.3647 0.00473298 0)
(10.363 0.00550696 0)
(10.361 0.00640149 0)
(10.3588 0.00743612 0)
(10.3562 0.00863356 0)
(10.3532 0.0100202 0)
(10.3497 0.0116263 0)
(10.3456 0.0134862 0)
(10.3409 0.0156391 0)
(10.3355 0.0181305 0)
(10.3292 0.0210126 0)
(10.3219 0.0243454 0)
(10.3134 0.0281975 0)
(10.3036 0.0326461 0)
(10.2923 0.0377797 0)
(10.2791 0.0436974 0)
(10.264 0.0505138 0)
(10.2464 0.0583537 0)
(10.2262 0.0673597 0)
(10.2028 0.0776871 0)
(10.1759 0.0895022 0)
(10.1448 0.103 0)
(10.1091 0.11836 0)
(10.0681 0.135812 0)
(10.021 0.155551 0)
(9.96694 0.177781 0)
(9.90517 0.202765 0)
(9.83466 0.230555 0)
(9.7543 0.261495 0)
(9.6631 0.295528 0)
(9.55967 0.332674 0)
(9.44292 0.373278 0)
(9.3116 0.416412 0)
(9.16398 0.462763 0)
(8.99955 0.511472 0)
(8.8162 0.56098 0)
(8.61263 0.613133 0)
(8.38945 0.663627 0)
(10.0026 0.018734 0)
(10.0064 0.0526778 0)
(10.0305 0.0802185 0)
(10.0567 0.100763 0)
(10.0698 0.11353 0)
(10.1104 0.120032 0)
(10.1478 0.125454 0)
(10.1504 0.130938 0)
(10.1771 0.133969 0)
(10.2248 0.13632 0)
(10.2242 0.141229 0)
(10.2091 0.14456 0)
(10.257 0.142531 0)
(10.3293 0.140246 0)
(10.3456 0.140827 0)
(10.3264 0.13904 0)
(10.3395 0.131719 0)
(10.3869 0.122983 0)
(10.4246 0.115847 0)
(10.438 0.107572 0)
(10.4447 0.0954281 0)
(10.4546 0.0806671 0)
(10.4608 0.0658552 0)
(10.4584 0.0521543 0)
(10.4504 0.039814 0)
(10.4417 0.0292311 0)
(10.4339 0.0208253 0)
(10.427 0.0144705 0)
(10.4211 0.00989016 0)
(10.4164 0.00675571 0)
(10.413 0.00471406 0)
(10.4105 0.00346166 0)
(10.4087 0.00275803 0)
(10.4073 0.00242636 0)
(10.4063 0.0023477 0)
(10.4054 0.00244531 0)
(10.4045 0.00267438 0)
(10.4037 0.00301086 0)
(10.4029 0.00344343 0)
(10.402 0.00396981 0)
(10.401 0.00459475 0)
(10.3999 0.0053282 0)
(10.3986 0.00618395 0)
(10.3971 0.00717895 0)
(10.3954 0.00833378 0)
(10.3934 0.009673 0)
(10.3911 0.0112255 0)
(10.3884 0.0130249 0)
(10.3853 0.0151096 0)
(10.3817 0.0175244 0)
(10.3776 0.0203202 0)
(10.3728 0.0235565 0)
(10.3672 0.0273013 0)
(10.3607 0.0316324 0)
(10.3532 0.0366393 0)
(10.3445 0.0424226 0)
(10.3345 0.0490987 0)
(10.3228 0.0567995 0)
(10.3094 0.0656705 0)
(10.2938 0.0758865 0)
(10.2758 0.0876213 0)
(10.255 0.101097 0)
(10.2311 0.116534 0)
(10.2034 0.134166 0)
(10.1715 0.154319 0)
(10.1348 0.177167 0)
(10.0926 0.203145 0)
(10.0441 0.232456 0)
(9.98847 0.265318 0)
(9.92484 0.302398 0)
(9.85222 0.343177 0)
(9.76921 0.388787 0)
(9.67537 0.438751 0)
(9.56853 0.492511 0)
(9.44803 0.55232 0)
(9.31333 0.614008 0)
(9.16023 0.680687 0)
(8.99167 0.751868 0)
(8.80388 0.819573 0)
(8.59186 0.895366 0)
(10.0026 0.0133077 0)
(10.0031 0.0384858 0)
(10.0221 0.0601518 0)
(10.0423 0.0775 0)
(10.0493 0.0894863 0)
(10.086 0.0964014 0)
(10.122 0.101467 0)
(10.1231 0.105956 0)
(10.1484 0.108216 0)
(10.1975 0.109659 0)
(10.198 0.113504 0)
(10.1793 0.117317 0)
(10.2228 0.116489 0)
(10.2958 0.113064 0)
(10.3149 0.111583 0)
(10.295 0.110597 0)
(10.3051 0.106263 0)
(10.3506 0.0993825 0)
(10.3868 0.0927658 0)
(10.3975 0.0860688 0)
(10.4023 0.0773104 0)
(10.4135 0.0664942 0)
(10.4247 0.0552639 0)
(10.4288 0.0447538 0)
(10.4276 0.0352299 0)
(10.4253 0.0268655 0)
(10.4231 0.019937 0)
(10.4206 0.0145407 0)
(10.4179 0.0105319 0)
(10.4154 0.00766457 0)
(10.4133 0.00569317 0)
(10.4117 0.004407 0)
(10.4104 0.00362997 0)
(10.4093 0.00322312 0)
(10.4085 0.00308691 0)
(10.4077 0.00315436 0)
(10.407 0.00338304 0)
(10.4063 0.00374821 0)
(10.4055 0.00423743 0)
(10.4047 0.00484734 0)
(10.4039 0.00558219 0)
(10.4029 0.00645232 0)
(10.4017 0.00747319 0)
(10.4004 0.00866438 0)
(10.3989 0.0100503 0)
(10.3971 0.0116598 0)
(10.3951 0.0135274 0)
(10.3927 0.015693 0)
(10.39 0.0182028 0)
(10.3868 0.0211108 0)
(10.3831 0.0244784 0)
(10.3788 0.0283782 0)
(10.3739 0.0328906 0)
(10.3682 0.0381121 0)
(10.3615 0.0441478 0)
(10.3538 0.0511237 0)
(10.3449 0.0591797 0)
(10.3345 0.0684721 0)
(10.3225 0.0791952 0)
(10.3086 0.0915269 0)
(10.2926 0.105742 0)
(10.274 0.122038 0)
(10.2524 0.140751 0)
(10.2276 0.162195 0)
(10.1988 0.186582 0)
(10.1656 0.214593 0)
(10.1273 0.246084 0)
(10.083 0.282034 0)
(10.0323 0.322556 0)
(9.9736 0.367405 0)
(9.90632 0.418997 0)
(9.82987 0.474112 0)
(9.74073 0.536648 0)
(9.64162 0.605466 0)
(9.52729 0.675986 0)
(9.39627 0.759538 0)
(9.25527 0.840573 0)
(9.08636 0.926434 0)
(8.9037 1.02814 0)
(8.7091 1.1081 0)
(10.0027 0.00960086 0)
(10.0014 0.0280199 0)
(10.0173 0.0445159 0)
(10.0339 0.0583948 0)
(10.0366 0.0688643 0)
(10.07 0.0758099 0)
(10.1043 0.0806078 0)
(10.1037 0.0842958 0)
(10.128 0.0865777 0)
(10.1781 0.0882724 0)
(10.1791 0.0909086 0)
(10.1575 0.0934363 0)
(10.1978 0.093506 0)
(10.2712 0.0916566 0)
(10.2922 0.090348 0)
(10.2713 0.0890957 0)
(10.2779 0.08545 0)
(10.3211 0.0796902 0)
(10.3565 0.0741045 0)
(10.3665 0.0693291 0)
(10.3709 0.0641391 0)
(10.3833 0.0578024 0)
(10.3975 0.0507453 0)
(10.4055 0.0435233 0)
(10.4084 0.0363473 0)
(10.4099 0.0294295 0)
(10.4113 0.0231409 0)
(10.4119 0.0177817 0)
(10.4116 0.0134519 0)
(10.411 0.0101107 0)
(10.4104 0.00765026 0)
(10.4099 0.00593331 0)
(10.4093 0.00481479 0)
(10.4088 0.00416113 0)
(10.4083 0.00386365 0)
(10.4078 0.00384047 0)
(10.4073 0.00403327 0)
(10.4068 0.00440426 0)
(10.4062 0.00493278 0)
(10.4055 0.00561061 0)
(10.4048 0.00643924 0)
(10.404 0.00742775 0)
(10.403 0.00859237 0)
(10.4019 0.00995451 0)
(10.4006 0.0115417 0)
(10.3991 0.0133865 0)
(10.3974 0.0155284 0)
(10.3953 0.0180129 0)
(10.393 0.0208932 0)
(10.3903 0.0242318 0)
(10.3872 0.0280987 0)
(10.3835 0.0325781 0)
(10.3793 0.0377635 0)
(10.3744 0.043762 0)
(10.3687 0.0507053 0)
(10.362 0.0587228 0)
(10.3544 0.0679979 0)
(10.3455 0.0786978 0)
(10.3351 0.0910352 0)
(10.3232 0.105298 0)
(10.3092 0.121626 0)
(10.2931 0.140561 0)
(10.2744 0.162128 0)
(10.2526 0.186964 0)
(10.2275 0.215525 0)
(10.1982 0.247547 0)
(10.1642 0.285146 0)
(10.1252 0.326364 0)
(10.0788 0.374009 0)
(10.0269 0.428338 0)
(9.96545 0.485553 0)
(9.89366 0.556203 0)
(9.81571 0.626626 0)
(9.71709 0.707515 0)
(9.61294 0.802989 0)
(9.49344 0.885428 0)
(9.34023 1.00008 0)
(9.20003 1.10834 0)
(9.01206 1.19821 0)
(8.79171 1.35161 0)
(10.0027 0.00683567 0)
(10.0004 0.0200894 0)
(10.0145 0.0322532 0)
(10.0288 0.0427749 0)
(10.029 0.0512451 0)
(10.0598 0.0573659 0)
(10.0921 0.0615066 0)
(10.0903 0.0646158 0)
(10.1141 0.0669715 0)
(10.1641 0.0684236 0)
(10.1649 0.0697228 0)
(10.1423 0.0714082 0)
(10.181 0.07239 0)
(10.2536 0.071696 0)
(10.2749 0.070086 0)
(10.2535 0.0682449 0)
(10.2585 0.0655177 0)
(10.3003 0.061669 0)
(10.3352 0.0577175 0)
(10.3449 0.0543282 0)
(10.3489 0.0509084 0)
(10.3617 0.0466939 0)
(10.3774 0.0416688 0)
(10.3878 0.0362284 0)
(10.3934 0.0306699 0)
(10.3978 0.0252204 0)
(10.4018 0.0201704 0)
(10.4047 0.0157838 0)
(10.4064 0.0121871 0)
(10.4074 0.00938034 0)
(10.408 0.00729504 0)
(10.4083 0.00583268 0)
(10.4084 0.00488434 0)
(10.4083 0.00434609 0)
(10.4082 0.00413094 0)
(10.4079 0.00417283 0)
(10.4076 0.0044249 0)
(10.4073 0.00485693 0)
(10.4068 0.00545321 0)
(10.4064 0.00620894 0)
(10.4058 0.00712857 0)
(10.4051 0.00822337 0)
(10.4043 0.00951261 0)
(10.4035 0.0110198 0)
(10.4024 0.0127767 0)
(10.4012 0.0148181 0)
(10.3998 0.0171897 0)
(10.3982 0.0199399 0)
(10.3963 0.0231303 0)
(10.3941 0.026828 0)
(10.3916 0.0311126 0)
(10.3886 0.0360792 0)
(10.3852 0.0418231 0)
(10.3812 0.0484866 0)
(10.3766 0.0561735 0)
(10.3712 0.0650989 0)
(10.365 0.075374 0)
(10.3577 0.0872824 0)
(10.3493 0.10103 0)
(10.3394 0.116804 0)
(10.328 0.135238 0)
(10.3147 0.156002 0)
(10.299 0.18055 0)
(10.2812 0.208098 0)
(10.2596 0.23987 0)
(10.2355 0.277235 0)
(10.2066 0.317076 0)
(10.172 0.367119 0)
(10.135 0.418895 0)
(10.0855 0.479334 0)
(10.0342 0.553299 0)
(9.97308 0.619284 0)
(9.89053 0.717359 0)
(9.82063 0.806259 0)
(9.70749 0.898305 0)
(9.58975 1.04242 0)
(9.48668 1.12633 0)
(9.28497 1.26679 0)
(9.14394 1.44298 0)
(8.97025 1.49913 0)
(10.0027 0.00461636 0)
(9.99981 0.0135776 0)
(10.0129 0.0219608 0)
(10.0258 0.0293466 0)
(10.0242 0.0354312 0)
(10.0532 0.0400627 0)
(10.0842 0.0433451 0)
(10.0816 0.0458085 0)
(10.1046 0.0475839 0)
(10.1541 0.0484955 0)
(10.1549 0.049204 0)
(10.1321 0.0504641 0)
(10.1698 0.0515303 0)
(10.2413 0.0511566 0)
(10.2623 0.0496544 0)
(10.2409 0.0480461 0)
(10.2451 0.0462515 0)
(10.2859 0.043763 0)
(10.3201 0.0409711 0)
(10.3297 0.0385442 0)
(10.3338 0.0363376 0)
(10.347 0.033757 0)
(10.3637 0.0305977 0)
(10.3757 0.0270555 0)
(10.3831 0.023341 0)
(10.3892 0.0196063 0)
(10.3949 0.0160447 0)
(10.3994 0.0128638 0)
(10.4025 0.0101959 0)
(10.4046 0.00807785 0)
(10.406 0.00648617 0)
(10.407 0.00536831 0)
(10.4076 0.00465838 0)
(10.4079 0.0042874 0)
(10.4081 0.00419326 0)
(10.4081 0.00432735 0)
(10.408 0.00465576 0)
(10.4078 0.00515702 0)
(10.4076 0.00582138 0)
(10.4072 0.00664808 0)
(10.4068 0.00764578 0)
(10.4064 0.00882796 0)
(10.4058 0.0102175 0)
(10.4052 0.011839 0)
(10.4044 0.0137292 0)
(10.4035 0.0159242 0)
(10.4025 0.0184747 0)
(10.4013 0.0214331 0)
(10.3999 0.0248633 0)
(10.3983 0.0288455 0)
(10.3964 0.0334524 0)
(10.3942 0.0388038 0)
(10.3917 0.0449913 0)
(10.3887 0.0521576 0)
(10.3853 0.0604831 0)
(10.3813 0.0700356 0)
(10.3766 0.0812396 0)
(10.3711 0.093973 0)
(10.3647 0.108908 0)
(10.3574 0.126098 0)
(10.3485 0.145567 0)
(10.3384 0.169155 0)
(10.3266 0.194264 0)
(10.3118 0.225925 0)
(10.2967 0.260018 0)
(10.2755 0.298857 0)
(10.2537 0.34893 0)
(10.2279 0.3938 0)
(10.19 0.461894 0)
(10.1619 0.52612 0)
(10.1067 0.594322 0)
(10.0537 0.705383 0)
(10.0084 0.76785 0)
(9.89456 0.898941 0)
(9.84621 1.03227 0)
(9.73006 1.09893 0)
(9.55978 1.32438 0)
(9.50914 1.43613 0)
(9.25631 1.5313 0)
(9.06662 1.84819 0)
(10.0027 0.00267765 0)
(9.9995 0.00787383 0)
(10.012 0.0128012 0)
(10.024 0.0171632 0)
(10.0215 0.0208017 0)
(10.0495 0.0237089 0)
(10.0794 0.0258083 0)
(10.076 0.0272745 0)
(10.0985 0.028329 0)
(10.1478 0.0289826 0)
(10.1487 0.0294446 0)
(10.1257 0.0301162 0)
(10.1626 0.0306998 0)
(10.2333 0.030486 0)
(10.2542 0.0295783 0)
(10.2328 0.0285948 0)
(10.2367 0.0275723 0)
(10.2767 0.0261839 0)
(10.3106 0.0245955 0)
(10.3202 0.0232389 0)
(10.3245 0.0220848 0)
(10.3379 0.0207483 0)
(10.3551 0.0190329 0)
(10.368 0.0170269 0)
(10.3765 0.0148708 0)
(10.3837 0.0126714 0)
(10.3904 0.0105519 0)
(10.3959 0.00864688 0)
(10.3999 0.00705014 0)
(10.4026 0.00579846 0)
(10.4047 0.00488602 0)
(10.4061 0.00428395 0)
(10.4071 0.00395514 0)
(10.4078 0.00386172 0)
(10.4082 0.00396917 0)
(10.4084 0.00425102 0)
(10.4085 0.0046908 0)
(10.4084 0.00527992 0)
(10.4083 0.0060185 0)
(10.4082 0.00691235 0)
(10.408 0.00797632 0)
(10.4077 0.00922625 0)
(10.4074 0.0106907 0)
(10.407 0.0123931 0)
(10.4065 0.0143794 0)
(10.406 0.016678 0)
(10.4053 0.0193587 0)
(10.4046 0.0224528 0)
(10.4037 0.0260635 0)
(10.4027 0.0302253 0)
(10.4015 0.0350802 0)
(10.4002 0.0406817 0)
(10.3986 0.0471846 0)
(10.3967 0.0547499 0)
(10.3945 0.0633974 0)
(10.392 0.0736725 0)
(10.3889 0.0850935 0)
(10.3854 0.0990178 0)
(10.3814 0.114279 0)
(10.3761 0.132559 0)
(10.371 0.153942 0)
(10.3635 0.176498 0)
(10.3555 0.207556 0)
(10.3473 0.235437 0)
(10.3322 0.276544 0)
(10.3243 0.318924 0)
(10.3026 0.360944 0)
(10.2825 0.434421 0)
(10.2703 0.475691 0)
(10.2165 0.56743 0)
(10.2105 0.658022 0)
(10.1548 0.708465 0)
(10.0757 0.891127 0)
(10.0845 0.947019 0)
(9.91981 1.07709 0)
(9.87305 1.32709 0)
(9.80164 1.33587 0)
(9.5451 1.60203 0)
(9.53217 1.85117 0)
(9.24563 1.85687 0)
(10.0027 0.000880282 0)
(9.99935 0.00258932 0)
(10.0116 0.0042161 0)
(10.0232 0.00566097 0)
(10.0202 0.00688517 0)
(10.0477 0.00788013 0)
(10.0771 0.00858101 0)
(10.0734 0.00905932 0)
(10.0957 0.00945452 0)
(10.1448 0.0097395 0)
(10.1455 0.00988598 0)
(10.1225 0.0100401 0)
(10.1592 0.0102036 0)
(10.2296 0.0101763 0)
(10.2503 0.00993787 0)
(10.229 0.00965017 0)
(10.2327 0.00934148 0)
(10.2724 0.00891985 0)
(10.306 0.00843169 0)
(10.3156 0.00801662 0)
(10.32 0.00767496 0)
(10.3335 0.00728417 0)
(10.351 0.00677405 0)
(10.3643 0.00617163 0)
(10.3733 0.00552694 0)
(10.381 0.00487744 0)
(10.3883 0.00426442 0)
(10.3942 0.00373507 0)
(10.3986 0.00332242 0)
(10.4018 0.0030405 0)
(10.4041 0.00289446 0)
(10.4059 0.00288341 0)
(10.4071 0.00299754 0)
(10.4079 0.00322753 0)
(10.4084 0.00356796 0)
(10.4088 0.0040169 0)
(10.409 0.00457722 0)
(10.4091 0.00525467 0)
(10.4092 0.00606134 0)
(10.4092 0.00700925 0)
(10.4091 0.00812144 0)
(10.4091 0.00941377 0)
(10.409 0.0109248 0)
(10.4088 0.0126708 0)
(10.4087 0.014713 0)
(10.4085 0.0170657 0)
(10.4083 0.0198156 0)
(10.408 0.0229904 0)
(10.4077 0.0266773 0)
(10.4073 0.030979 0)
(10.4069 0.0358978 0)
(10.4063 0.0417367 0)
(10.4058 0.0483106 0)
(10.4049 0.0561486 0)
(10.4042 0.0651122 0)
(10.403 0.0753009 0)
(10.4019 0.0879365 0)
(10.4004 0.10078 0)
(10.3981 0.118501 0)
(10.397 0.135617 0)
(10.3925 0.157764 0)
(10.3916 0.184976 0)
(10.3864 0.207312 0)
(10.3796 0.252371 0)
(10.3814 0.27738 0)
(10.36 0.330845 0)
(10.3664 0.389913 0)
(10.3484 0.417142 0)
(10.3167 0.540152 0)
(10.3456 0.566709 0)
(10.2559 0.666532 0)
(10.274 0.837799 0)
(10.2466 0.819628 0)
(10.112 1.08229 0)
(10.1772 1.20826 0)
(9.99435 1.24488 0)
(9.93286 1.63904 0)
(9.85881 1.69437 0)
(9.58224 1.89231 0)
(9.6072 2.27036 0)
(10.0027 -0.000873589 0)
(9.99935 -0.00256992 0)
(10.0116 -0.00418384 0)
(10.0232 -0.00561439 0)
(10.0202 -0.00682393 0)
(10.0477 -0.00780363 0)
(10.0771 -0.00848772 0)
(10.0734 -0.00894604 0)
(10.0957 -0.00931832 0)
(10.1448 -0.00957931 0)
(10.1455 -0.00969954 0)
(10.1225 -0.00982365 0)
(10.1592 -0.00995223 0)
(10.2296 -0.00988354 0)
(10.2503 -0.00959683 0)
(10.229 -0.00925453 0)
(10.2327 -0.00888543 0)
(10.2724 -0.00839568 0)
(10.3061 -0.00782756 0)
(10.3157 -0.00731686 0)
(10.32 -0.0068609 0)
(10.3336 -0.0063342 0)
(10.3511 -0.00566464 0)
(10.3644 -0.00487782 0)
(10.3734 -0.00402098 0)
(10.3811 -0.00312831 0)
(10.3884 -0.00223642 0)
(10.3944 -0.00138545 0)
(10.3988 -0.000600515 0)
(10.402 0.0001116 0)
(10.4044 0.00075517 0)
(10.4062 0.00134449 0)
(10.4075 0.00191012 0)
(10.4083 0.00247272 0)
(10.4089 0.0030511 0)
(10.4094 0.00366679 0)
(10.4097 0.0043429 0)
(10.4099 0.00509973 0)
(10.4101 0.00596115 0)
(10.4102 0.00694526 0)
(10.4104 0.00808352 0)
(10.4105 0.00939115 0)
(10.4106 0.0109178 0)
(10.4107 0.0126675 0)
(10.4109 0.014727 0)
(10.4111 0.0170698 0)
(10.4112 0.0198572 0)
(10.4114 0.0229879 0)
(10.4117 0.0267749 0)
(10.4119 0.0309421 0)
(10.4123 0.0361069 0)
(10.4126 0.0416455 0)
(10.413 0.0486508 0)
(10.4135 0.0561537 0)
(10.4136 0.0652873 0)
(10.4148 0.0761197 0)
(10.4145 0.0869678 0)
(10.4158 0.103714 0)
(10.4164 0.115744 0)
(10.4152 0.139908 0)
(10.4201 0.157651 0)
(10.4141 0.182134 0)
(10.4207 0.222368 0)
(10.4206 0.23242 0)
(10.4081 0.306259 0)
(10.436 0.32145 0)
(10.3959 0.378353 0)
(10.4206 0.486664 0)
(10.4287 0.458715 0)
(10.3504 0.655868 0)
(10.4539 0.694396 0)
(10.3317 0.738734 0)
(10.3489 1.04732 0)
(10.3653 0.990394 0)
(10.2107 1.24343 0)
(10.2909 1.49777 0)
(10.0648 1.54276 0)
(10.0759 1.92322 0)
(9.97177 2.04566 0)
(9.56149 2.41058 0)
(10.0027 -0.00267101 0)
(9.9995 -0.00785487 0)
(10.012 -0.0127697 0)
(10.024 -0.0171176 0)
(10.0215 -0.0207416 0)
(10.0495 -0.0236339 0)
(10.0794 -0.0257172 0)
(10.076 -0.0271642 0)
(10.0985 -0.0281963 0)
(10.1478 -0.0288255 0)
(10.1487 -0.0292614 0)
(10.1258 -0.0299045 0)
(10.1627 -0.030455 0)
(10.2334 -0.0302007 0)
(10.2542 -0.029245 0)
(10.2329 -0.0282074 0)
(10.2368 -0.0271261 0)
(10.2769 -0.0256714 0)
(10.3107 -0.0240045 0)
(10.3203 -0.0225541 0)
(10.3246 -0.0212884 0)
(10.3381 -0.0198202 0)
(10.3554 -0.0179504 0)
(10.3683 -0.0157645 0)
(10.3768 -0.013401 0)
(10.384 -0.0109635 0)
(10.3909 -0.00856993 0)
(10.3964 -0.00634948 0)
(10.4004 -0.00438869 0)
(10.4033 -0.00271171 0)
(10.4055 -0.00130567 0)
(10.4071 -0.000134413 0)
(10.4082 0.000854145 0)
(10.4091 0.00171858 0)
(10.4096 0.00250843 0)
(10.4101 0.00326608 0)
(10.4105 0.00403488 0)
(10.4108 0.004847 0)
(10.411 0.00574062 0)
(10.4113 0.00673294 0)
(10.4116 0.00787495 0)
(10.4119 0.0091595 0)
(10.4122 0.0106807 0)
(10.4127 0.012375 0)
(10.4131 0.0144337 0)
(10.4136 0.0166836 0)
(10.4142 0.0194714 0)
(10.4149 0.0225008 0)
(10.4156 0.0262044 0)
(10.4166 0.0304269 0)
(10.4176 0.0351345 0)
(10.4189 0.0412925 0)
(10.4203 0.04701 0)
(10.4216 0.0559639 0)
(10.4241 0.0633732 0)
(10.4248 0.0747127 0)
(10.4292 0.0873203 0)
(10.4297 0.0972271 0)
(10.4337 0.122194 0)
(10.4395 0.127066 0)
(10.4351 0.164457 0)
(10.4539 0.180111 0)
(10.4418 0.200544 0)
(10.4568 0.273205 0)
(10.4742 0.243465 0)
(10.438 0.36795 0)
(10.5118 0.379681 0)
(10.4544 0.396752 0)
(10.4799 0.619335 0)
(10.5388 0.50243 0)
(10.4269 0.739805 0)
(10.559 0.879594 0)
(10.4469 0.827835 0)
(10.5089 1.20601 0)
(10.4546 1.23915 0)
(10.3683 1.48795 0)
(10.4817 1.71638 0)
(10.1953 1.88989 0)
(10.1651 2.42001 0)
(10.1302 2.37492 0)
(10.0027 -0.00461011 0)
(9.99981 -0.0135595 0)
(10.0129 -0.0219305 0)
(10.0258 -0.0293034 0)
(10.0242 -0.035374 0)
(10.0533 -0.0399911 0)
(10.0842 -0.0432581 0)
(10.0816 -0.0457033 0)
(10.1046 -0.0474575 0)
(10.1541 -0.0483458 0)
(10.155 -0.0490289 0)
(10.1322 -0.0502618 0)
(10.1698 -0.0512964 0)
(10.2414 -0.0508836 0)
(10.2624 -0.0493352 0)
(10.241 -0.0476752 0)
(10.2453 -0.045825 0)
(10.286 -0.0432739 0)
(10.3203 -0.0404073 0)
(10.3299 -0.0378905 0)
(10.334 -0.0355769 0)
(10.3473 -0.0328697 0)
(10.3641 -0.0295622 0)
(10.3761 -0.0258481 0)
(10.3836 -0.0219358 0)
(10.3898 -0.0179742 0)
(10.3957 -0.0141522 0)
(10.4003 -0.0106684 0)
(10.4035 -0.00764996 0)
(10.4057 -0.00512944 0)
(10.4073 -0.00306706 0)
(10.4085 -0.00140184 0)
(10.4094 -6.97318e-05 0)
(10.41 0.00103439 0)
(10.4105 0.00198844 0)
(10.4109 0.00285042 0)
(10.4113 0.00367865 0)
(10.4116 0.00451698 0)
(10.412 0.00541256 0)
(10.4124 0.00638859 0)
(10.4128 0.00749839 0)
(10.4133 0.00874012 0)
(10.4138 0.0102006 0)
(10.4145 0.0118318 0)
(10.4152 0.0137996 0)
(10.4161 0.0159591 0)
(10.4171 0.0186465 0)
(10.4182 0.0214782 0)
(10.4196 0.0252382 0)
(10.4209 0.0287892 0)
(10.4231 0.0343415 0)
(10.4245 0.0383286 0)
(10.4276 0.0470076 0)
(10.4299 0.0509805 0)
(10.4325 0.0637889 0)
(10.4383 0.0697023 0)
(10.4379 0.0827576 0)
(10.449 0.101053 0)
(10.4484 0.100854 0)
(10.4557 0.148363 0)
(10.4725 0.129618 0)
(10.4558 0.190976 0)
(10.5023 0.209437 0)
(10.4767 0.199036 0)
(10.4998 0.345691 0)
(10.5494 0.244158 0)
(10.4787 0.412725 0)
(10.5996 0.472829 0)
(10.544 0.395279 0)
(10.566 0.726633 0)
(10.6498 0.607273 0)
(10.5673 0.818135 0)
(10.6987 0.975499 0)
(10.5829 1.07528 0)
(10.6936 1.36117 0)
(10.683 1.35991 0)
(10.5288 1.93433 0)
(10.632 2.00094 0)
(10.5097 2.24371 0)
(10.3369 2.87928 0)
(10.0027 -0.00682992 0)
(10.0004 -0.0200724 0)
(10.0145 -0.0322251 0)
(10.0288 -0.042735 0)
(10.029 -0.0511919 0)
(10.0598 -0.057299 0)
(10.0921 -0.0614256 0)
(10.0904 -0.064518 0)
(10.1142 -0.0668541 0)
(10.1642 -0.0682843 0)
(10.165 -0.0695595 0)
(10.1423 -0.0712191 0)
(10.1811 -0.0721714 0)
(10.2538 -0.0714418 0)
(10.275 -0.0697888 0)
(10.2536 -0.0678993 0)
(10.2587 -0.0651194 0)
(10.3005 -0.0612113 0)
(10.3355 -0.0571901 0)
(10.3452 -0.0537179 0)
(10.3493 -0.0501991 0)
(10.3621 -0.0458676 0)
(10.3779 -0.0407041 0)
(10.3884 -0.0351026 0)
(10.3941 -0.029359 0)
(10.3986 -0.0236973 0)
(10.4028 -0.0184026 0)
(10.4059 -0.0137329 0)
(10.4078 -0.0098082 0)
(10.409 -0.00662197 0)
(10.4098 -0.00409974 0)
(10.4104 -0.00212888 0)
(10.4108 -0.000578842 0)
(10.4112 0.000641242 0)
(10.4115 0.00164415 0)
(10.4118 0.00252082 0)
(10.4121 0.00334384 0)
(10.4125 0.00415232 0)
(10.4129 0.00501603 0)
(10.4134 0.00592233 0)
(10.4139 0.00699665 0)
(10.4146 0.00810271 0)
(10.4153 0.00956956 0)
(10.4163 0.0109216 0)
(10.4172 0.0130416 0)
(10.4185 0.0146235 0)
(10.4197 0.0177682 0)
(10.4215 0.0195794 0)
(10.423 0.0240604 0)
(10.4257 0.0265581 0)
(10.4272 0.0318995 0)
(10.4314 0.0371306 0)
(10.4331 0.0408333 0)
(10.4382 0.0532717 0)
(10.4427 0.0518013 0)
(10.4447 0.0738616 0)
(10.4581 0.0725475 0)
(10.4521 0.0895068 0)
(10.4752 0.118418 0)
(10.4728 0.092866 0)
(10.4797 0.185427 0)
(10.5192 0.122123 0)
(10.4786 0.21115 0)
(10.5613 0.255196 0)
(10.5254 0.169694 0)
(10.5603 0.426903 0)
(10.613 0.258201 0)
(10.5895 0.420194 0)
(10.6591 0.576159 0)
(10.6616 0.427457 0)
(10.7449 0.776706 0)
(10.706 0.709699 0)
(10.8132 0.978158 0)
(10.8341 1.0293 0)
(10.8726 1.24469 0)
(10.8263 1.66469 0)
(10.9717 1.58301 0)
(10.8955 2.18904 0)
(10.7859 2.44981 0)
(10.8461 2.83134 0)
(10.0027 -0.00959571 0)
(10.0014 -0.0280048 0)
(10.0173 -0.0444905 0)
(10.0339 -0.0583588 0)
(10.0366 -0.0688163 0)
(10.0701 -0.0757497 0)
(10.1043 -0.0805348 0)
(10.1037 -0.0842072 0)
(10.128 -0.0864712 0)
(10.1781 -0.0881464 0)
(10.1792 -0.0907611 0)
(10.1576 -0.0932648 0)
(10.198 -0.0933072 0)
(10.2713 -0.0914257 0)
(10.2923 -0.0900784 0)
(10.2715 -0.088782 0)
(10.2781 -0.085088 0)
(10.3214 -0.079274 0)
(10.3568 -0.0736251 0)
(10.3669 -0.0687746 0)
(10.3714 -0.0634948 0)
(10.3839 -0.0570529 0)
(10.3981 -0.0498719 0)
(10.4062 -0.0425069 0)
(10.4092 -0.0351659 0)
(10.411 -0.0280586 0)
(10.4125 -0.0215541 0)
(10.4133 -0.0159416 0)
(10.4133 -0.0113175 0)
(10.413 -0.00763698 0)
(10.4127 -0.00478316 0)
(10.4125 -0.00261553 0)
(10.4124 -0.000971339 0)
(10.4124 0.000314559 0)
(10.4124 0.00133792 0)
(10.4126 0.00219956 0)
(10.4129 0.00298225 0)
(10.4133 0.00373808 0)
(10.4137 0.00452625 0)
(10.4143 0.00536428 0)
(10.415 0.00631551 0)
(10.4159 0.00736797 0)
(10.4166 0.00860047 0)
(10.418 0.010009 0)
(10.4189 0.0116028 0)
(10.4208 0.0136043 0)
(10.422 0.0155517 0)
(10.4245 0.0185639 0)
(10.4265 0.0208232 0)
(10.429 0.0251358 0)
(10.4333 0.0285578 0)
(10.4341 0.0325399 0)
(10.4429 0.0417376 0)
(10.4415 0.0386179 0)
(10.4534 0.0637215 0)
(10.4564 0.0452314 0)
(10.4605 0.088001 0)
(10.4826 0.0720886 0)
(10.4681 0.0885778 0)
(10.5092 0.148704 0)
(10.4998 0.0609906 0)
(10.5135 0.237818 0)
(10.5693 0.106641 0)
(10.513 0.216247 0)
(10.6373 0.306482 0)
(10.5639 0.153987 0)
(10.6727 0.447523 0)
(10.6641 0.312194 0)
(10.7165 0.464102 0)
(10.7837 0.509914 0)
(10.7902 0.642866 0)
(10.8968 0.763583 0)
(10.9282 0.702946 0)
(11.0437 1.25497 0)
(10.9941 1.08993 0)
(11.2568 1.42891 0)
(11.1207 1.85154 0)
(11.3378 2.00708 0)
(11.1349 2.5754 0)
(11.286 2.92032 0)
(10.0026 -0.0133034 0)
(10.0031 -0.0384727 0)
(10.0221 -0.0601301 0)
(10.0424 -0.077469 0)
(10.0494 -0.0894449 0)
(10.086 -0.0963494 0)
(10.122 -0.101403 0)
(10.1231 -0.105878 0)
(10.1484 -0.108122 0)
(10.1976 -0.109548 0)
(10.1981 -0.113375 0)
(10.1794 -0.117166 0)
(10.2229 -0.116313 0)
(10.2959 -0.11286 0)
(10.3151 -0.111346 0)
(10.2953 -0.110321 0)
(10.3054 -0.105944 0)
(10.3509 -0.0990155 0)
(10.3872 -0.0923426 0)
(10.3979 -0.0855786 0)
(10.4028 -0.0767407 0)
(10.4142 -0.0658304 0)
(10.4255 -0.05449 0)
(10.4297 -0.0438522 0)
(10.4287 -0.0341804 0)
(10.4266 -0.0256452 0)
(10.4245 -0.0185213 0)
(10.4223 -0.0128908 0)
(10.4198 -0.00861692 0)
(10.4176 -0.00545127 0)
(10.416 -0.00312332 0)
(10.4148 -0.00143904 0)
(10.414 -0.00021327 0)
(10.4136 0.000710089 0)
(10.4134 0.00146682 0)
(10.4134 0.00212069 0)
(10.4136 0.00274412 0)
(10.4139 0.00334419 0)
(10.4144 0.00403075 0)
(10.4151 0.00468208 0)
(10.4158 0.00561861 0)
(10.4168 0.00629719 0)
(10.4179 0.00780779 0)
(10.4192 0.00823019 0)
(10.4207 0.0110568 0)
(10.4223 0.0103563 0)
(10.4246 0.016097 0)
(10.4266 0.0124511 0)
(10.4297 0.0236685 0)
(10.4328 0.0149483 0)
(10.4355 0.0331286 0)
(10.4429 0.0210878 0)
(10.4412 0.0402202 0)
(10.4583 0.0383639 0)
(10.4487 0.0391013 0)
(10.4754 0.0704093 0)
(10.4671 0.038532 0)
(10.486 0.0946868 0)
(10.5038 0.0804731 0)
(10.4951 0.0670316 0)
(10.5435 0.191888 0)
(10.5303 0.0202881 0)
(10.5717 0.270686 0)
(10.5862 0.112162 0)
(10.6264 0.195272 0)
(10.6396 0.34545 0)
(10.6916 0.141397 0)
(10.7688 0.482243 0)
(10.7083 0.271002 0)
(10.951 0.565021 0)
(10.818 0.487351 0)
(11.0751 0.654971 0)
(11.0052 0.838969 0)
(11.277 0.858281 0)
(11.1966 1.17622 0)
(11.4822 1.30588 0)
(11.5707 1.73255 0)
(11.4301 2.01032 0)
(12.0731 2.45361 0)
(11.3976 3.00533 0)
(10.0026 -0.0187305 0)
(10.0064 -0.0526673 0)
(10.0305 -0.0802011 0)
(10.0567 -0.100738 0)
(10.0699 -0.113496 0)
(10.1104 -0.11999 0)
(10.1478 -0.125403 0)
(10.1505 -0.130875 0)
(10.1772 -0.133893 0)
(10.2249 -0.136229 0)
(10.2243 -0.141123 0)
(10.2092 -0.144436 0)
(10.2572 -0.142385 0)
(10.3295 -0.140076 0)
(10.3459 -0.140628 0)
(10.3267 -0.13881 0)
(10.3398 -0.131452 0)
(10.3873 -0.122677 0)
(10.4251 -0.115494 0)
(10.4385 -0.107166 0)
(10.4453 -0.0949589 0)
(10.4553 -0.0801269 0)
(10.4617 -0.0652277 0)
(10.4594 -0.0514333 0)
(10.4516 -0.0389733 0)
(10.4431 -0.0282631 0)
(10.4356 -0.019723 0)
(10.429 -0.0131485 0)
(10.4234 -0.00834453 0)
(10.4191 -0.00496153 0)
(10.416 -0.00264344 0)
(10.414 -0.00103992 0)
(10.4128 8.11958e-05 0)
(10.4121 0.00084738 0)
(10.4118 0.00143445 0)
(10.4118 0.00193534 0)
(10.412 0.00240789 0)
(10.4124 0.0028844 0)
(10.4129 0.00340381 0)
(10.4138 0.00397862 0)
(10.4145 0.00463099 0)
(10.4159 0.0054151 0)
(10.4165 0.00620478 0)
(10.4191 0.00745516 0)
(10.4189 0.00810103 0)
(10.424 0.0106607 0)
(10.4216 0.00991197 0)
(10.4308 0.0162639 0)
(10.4253 0.0106426 0)